# vtk DataFile Version 2.0
critical cells
ASCII
DATASET UNSTRUCTURED_GRID
POINTS 640 float
374.500 4.500 1159.198
970.500 0.500 1171.970
590.500 0.500 1206.169
998.500 518.500 1239.346
770.500 2.500 1240.889
724.500 54.500 1243.217
392.500 320.500 1259.275
544.500 340.500 1262.458
734.500 288.500 1263.484
708.500 264.500 1265.061
424.500 388.500 1270.532
436.500 418.500 1270.747
706.500 390.500 1273.014
708.500 392.500 1273.019
772.500 436.500 1277.690
810.500 448.500 1278.878
786.500 470.500 1279.061
810.500 890.500 1279.299
798.500 878.500 1279.645
796.500 876.500 1279.649
832.500 924.500 1280.040
858.500 782.500 1285.902
680.500 718.500 1286.782
730.500 574.500 1287.622
910.500 808.500 1288.135
698.500 648.500 1290.194
706.500 656.500 1290.321
920.500 852.500 1290.513
994.500 774.500 1291.685
998.500 856.500 1292.056
542.500 550.500 1297.923
530.500 580.500 1299.134
372.500 602.500 1304.075
362.500 626.500 1305.011
484.500 712.500 1313.707
438.500 726.500 1314.357
440.500 728.500 1314.361
440.500 974.500 1316.490
330.500 772.500 1316.511
526.500 862.500 1317.318
384.500 758.500 1317.803
380.500 756.500 1317.853
460.500 932.500 1318.049
426.500 856.500 1319.171
332.500 826.500 1319.828
330.500 824.500 1319.834
446.500 808.500 1319.868
446.500 822.500 1319.884
312.500 806.500 1320.558
390.500 828.500 1321.193
266.500 836.500 1325.063
340.500 926.500 1326.768
138.500 932.500 1343.972
0.500 998.500 1371.019
558.500 0.500 1212.790
560.500 0.500 1212.818
490.500 136.500 1235.336
492.500 134.500 1235.340
514.500 106.500 1235.509
514.500 108.500 1235.501
802.500 4.500 1242.226
804.500 4.500 1242.196
722.500 8.500 1243.264
724.500 8.500 1243.264
722.500 0.500 1243.324
724.500 0.500 1243.359
716.500 46.500 1243.560
718.500 46.500 1243.549
714.500 70.500 1243.630
716.500 70.500 1243.586
434.500 238.500 1250.554
436.500 238.500 1250.561
782.500 126.500 1252.734
784.500 126.500 1252.740
368.500 322.500 1259.580
370.500 322.500 1259.563
416.500 306.500 1259.622
418.500 304.500 1259.623
358.500 340.500 1259.666
360.500 338.500 1259.671
388.500 306.500 1260.096
388.500 308.500 1260.103
392.500 304.500 1260.096
392.500 306.500 1260.104
396.500 302.500 1260.099
396.500 304.500 1260.111
706.500 260.500 1265.071
706.500 262.500 1265.069
714.500 268.500 1265.131
714.500 270.500 1265.136
550.500 308.500 1265.146
552.500 306.500 1265.148
690.500 254.500 1265.163
692.500 252.500 1265.166
780.500 242.500 1265.336
782.500 240.500 1265.329
588.500 330.500 1266.036
590.500 328.500 1266.060
476.500 296.500 1267.427
478.500 294.500 1267.424
414.500 388.500 1270.640
416.500 388.500 1270.628
434.500 402.500 1270.895
434.500 404.500 1270.896
426.500 370.500 1270.995
426.500 372.500 1270.997
998.500 368.500 1272.112
998.500 370.500 1272.107
676.500 316.500 1272.399
678.500 316.500 1272.458
706.500 392.500 1273.020
708.500 392.500 1273.019
706.500 382.500 1273.043
706.500 384.500 1273.048
884.500 352.500 1273.653
884.500 354.500 1273.646
682.500 374.500 1273.780
684.500 372.500 1273.798
680.500 362.500 1274.088
682.500 360.500 1274.085
954.500 364.500 1274.391
954.500 366.500 1274.389
838.500 380.500 1275.316
840.500 380.500 1275.310
688.500 418.500 1277.637
690.500 416.500 1277.629
686.500 414.500 1277.642
688.500 412.500 1277.672
772.500 434.500 1277.692
772.500 436.500 1277.690
810.500 448.500 1278.878
812.500 446.500 1278.881
782.500 468.500 1279.076
782.500 470.500 1279.076
794.500 464.500 1279.156
796.500 462.500 1279.170
798.500 878.500 1279.645
800.500 878.500 1279.649
796.500 874.500 1279.651
796.500 876.500 1279.649
796.500 876.500 1279.649
798.500 876.500 1279.661
832.500 918.500 1280.062
832.500 920.500 1280.059
720.500 494.500 1284.732
722.500 494.500 1284.732
858.500 776.500 1285.909
858.500 778.500 1285.912
848.500 788.500 1286.085
850.500 788.500 1286.065
742.500 716.500 1286.816
744.500 716.500 1286.818
732.500 574.500 1287.626
732.500 576.500 1287.624
706.500 708.500 1287.627
708.500 706.500 1287.629
880.500 752.500 1288.268
882.500 750.500 1288.280
728.500 554.500 1288.358
728.500 556.500 1288.346
892.500 818.500 1288.718
894.500 816.500 1288.722
708.500 740.500 1289.589
710.500 740.500 1289.600
704.500 656.500 1290.327
706.500 656.500 1290.321
706.500 656.500 1290.321
708.500 656.500 1290.337
920.500 850.500 1290.513
920.500 852.500 1290.513
698.500 566.500 1290.648
700.500 566.500 1290.656
688.500 670.500 1291.381
690.500 668.500 1291.372
690.500 672.500 1291.384
692.500 670.500 1291.387
692.500 674.500 1291.396
694.500 672.500 1291.396
888.500 882.500 1291.584
890.500 880.500 1291.583
886.500 880.500 1291.591
888.500 878.500 1291.576
992.500 856.500 1292.105
994.500 856.500 1292.107
968.500 796.500 1292.225
970.500 794.500 1292.228
692.500 608.500 1292.498
692.500 610.500 1292.497
998.500 826.500 1293.395
998.500 828.500 1293.400
968.500 766.500 1293.713
970.500 766.500 1293.714
998.500 734.500 1295.932
998.500 736.500 1295.915
536.500 536.500 1298.967
536.500 538.500 1298.955
480.500 542.500 1299.031
482.500 540.500 1299.098
478.500 540.500 1299.101
480.500 538.500 1299.077
502.500 558.500 1299.243
504.500 558.500 1299.239
522.500 568.500 1300.290
522.500 570.500 1300.284
598.500 570.500 1300.964
600.500 570.500 1300.964
334.500 582.500 1303.678
336.500 582.500 1303.691
372.500 600.500 1304.075
372.500 602.500 1304.075
388.500 606.500 1304.785
390.500 606.500 1304.801
364.500 620.500 1305.055
366.500 618.500 1305.066
496.500 600.500 1305.255
498.500 600.500 1305.236
546.500 998.500 1305.299
548.500 998.500 1305.304
610.500 624.500 1306.988
612.500 624.500 1307.001
610.500 618.500 1307.119
612.500 616.500 1307.113
598.500 644.500 1308.507
598.500 646.500 1308.504
186.500 642.500 1312.583
188.500 642.500 1312.613
560.500 688.500 1313.845
560.500 690.500 1313.836
438.500 728.500 1314.363
440.500 728.500 1314.361
436.500 716.500 1314.516
436.500 718.500 1314.524
452.500 726.500 1314.822
454.500 724.500 1314.831
450.500 712.500 1314.873
452.500 712.500 1314.882
536.500 718.500 1315.373
538.500 716.500 1315.392
514.500 700.500 1315.793
516.500 698.500 1315.793
516.500 702.500 1315.798
518.500 700.500 1315.783
518.500 704.500 1315.812
520.500 702.500 1315.814
522.500 706.500 1315.835
524.500 704.500 1315.840
486.500 678.500 1316.082
486.500 680.500 1316.084
472.500 680.500 1316.152
472.500 682.500 1316.147
444.500 976.500 1316.528
446.500 976.500 1316.534
436.500 670.500 1317.056
438.500 668.500 1317.022
520.500 678.500 1317.167
522.500 676.500 1317.124
426.500 666.500 1317.222
428.500 664.500 1317.196
422.500 664.500 1317.198
424.500 662.500 1317.249
536.500 852.500 1317.537
538.500 850.500 1317.547
380.500 756.500 1317.853
382.500 756.500 1317.855
452.500 942.500 1318.194
454.500 940.500 1318.192
466.500 940.500 1318.236
468.500 940.500 1318.244
366.500 738.500 1319.209
366.500 740.500 1319.244
406.500 742.500 1319.296
408.500 740.500 1319.288
480.500 912.500 1319.451
482.500 910.500 1319.459
336.500 744.500 1319.537
338.500 742.500 1319.515
496.500 924.500 1319.609
498.500 922.500 1319.609
386.500 730.500 1319.829
388.500 730.500 1319.825
330.500 824.500 1319.834
332.500 824.500 1319.853
448.500 814.500 1319.907
448.500 816.500 1319.909
314.500 736.500 1319.947
314.500 738.500 1319.932
520.500 916.500 1319.952
522.500 916.500 1319.955
440.500 838.500 1320.332
442.500 836.500 1320.306
356.500 764.500 1320.571
358.500 762.500 1320.553
316.500 812.500 1320.679
318.500 812.500 1320.667
316.500 798.500 1320.811
318.500 796.500 1320.752
354.500 828.500 1321.004
356.500 826.500 1321.010
348.500 822.500 1321.108
350.500 820.500 1321.107
346.500 820.500 1321.135
348.500 818.500 1321.124
344.500 818.500 1321.156
346.500 816.500 1321.131
390.500 828.500 1321.193
392.500 828.500 1321.200
390.500 826.500 1321.212
390.500 828.500 1321.193
332.500 810.500 1321.361
334.500 808.500 1321.350
456.500 884.500 1321.974
456.500 886.500 1321.998
430.500 906.500 1322.044
432.500 906.500 1322.032
476.500 822.500 1322.267
478.500 822.500 1322.276
432.500 784.500 1322.490
432.500 786.500 1322.478
466.500 852.500 1322.840
468.500 850.500 1322.874
468.500 776.500 1323.031
470.500 774.500 1323.015
270.500 832.500 1325.105
272.500 830.500 1325.104
350.500 922.500 1327.100
352.500 920.500 1327.130
322.500 896.500 1331.417
322.500 898.500 1331.407
308.500 998.500 1336.495
310.500 998.500 1336.490
226.500 932.500 1339.769
226.500 934.500 1339.777
144.500 796.500 1341.668
144.500 798.500 1341.669
132.500 918.500 1344.372
132.500 920.500 1344.366
150.500 938.500 1344.753
152.500 938.500 1344.777
184.500 930.500 1345.457
186.500 928.500 1345.482
126.500 850.500 1345.967
126.500 852.500 1345.954
128.500 838.500 1346.246
130.500 836.500 1346.220
68.500 882.500 1354.115
70.500 880.500 1354.141
50.500 912.500 1356.059
52.500 912.500 1356.056
0.500 994.500 1371.095
0.500 996.500 1371.144
10.500 998.500 1372.038
12.500 998.500 1372.004
492.500 118.500 1236.046
492.500 120.500 1236.035
494.500 118.500 1236.052
538.500 92.500 1237.245
540.500 90.500 1237.263
540.500 92.500 1237.248
724.500 0.500 1243.359
724.500 2.500 1243.369
726.500 0.500 1243.319
714.500 58.500 1243.669
716.500 56.500 1243.630
716.500 58.500 1243.635
436.500 234.500 1250.568
438.500 232.500 1250.578
438.500 234.500 1250.596
782.500 112.500 1253.587
784.500 110.500 1253.593
784.500 112.500 1253.582
354.500 330.500 1260.056
354.500 332.500 1260.042
356.500 330.500 1260.039
386.500 308.500 1260.106
386.500 310.500 1260.067
388.500 308.500 1260.103
394.500 304.500 1260.113
394.500 306.500 1260.076
396.500 304.500 1260.111
390.500 306.500 1260.113
390.500 308.500 1260.073
392.500 306.500 1260.104
414.500 292.500 1260.318
414.500 294.500 1260.340
416.500 292.500 1260.330
690.500 252.500 1265.170
692.500 250.500 1265.123
692.500 252.500 1265.166
576.500 312.500 1267.333
578.500 310.500 1267.288
578.500 312.500 1267.325
762.500 216.500 1267.837
764.500 214.500 1267.836
764.500 216.500 1267.848
474.500 288.500 1267.973
474.500 290.500 1267.902
476.500 288.500 1267.933
416.500 374.500 1271.094
416.500 376.500 1271.095
418.500 374.500 1271.104
678.500 306.500 1272.561
678.500 308.500 1272.570
680.500 306.500 1272.482
680.500 362.500 1274.088
682.500 360.500 1274.085
682.500 362.500 1274.090
680.500 360.500 1274.104
680.500 362.500 1274.088
682.500 360.500 1274.085
970.500 360.500 1274.928
970.500 362.500 1274.938
972.500 360.500 1274.899
848.500 362.500 1276.053
850.500 360.500 1276.067
850.500 362.500 1276.068
686.500 416.500 1277.581
688.500 414.500 1277.672
688.500 416.500 1277.657
686.500 408.500 1277.699
686.500 410.500 1277.711
688.500 408.500 1277.587
914.500 342.500 1279.494
916.500 340.500 1279.486
916.500 342.500 1279.492
792.500 444.500 1279.520
792.500 446.500 1279.522
794.500 444.500 1279.521
724.500 484.500 1284.832
724.500 486.500 1284.825
726.500 484.500 1284.833
842.500 778.500 1286.414
844.500 776.500 1286.479
844.500 778.500 1286.474
742.500 714.500 1286.809
742.500 716.500 1286.816
744.500 714.500 1286.822
868.500 742.500 1288.703
868.500 744.500 1288.656
870.500 742.500 1288.702
740.500 554.500 1288.903
740.500 556.500 1288.901
742.500 554.500 1288.917
712.500 732.500 1289.607
712.500 734.500 1289.623
714.500 732.500 1289.622
704.500 562.500 1290.762
706.500 560.500 1290.770
706.500 562.500 1290.786
688.500 672.500 1291.358
690.500 670.500 1291.387
690.500 672.500 1291.384
692.500 672.500 1291.398
694.500 670.500 1291.374
694.500 672.500 1291.396
692.500 674.500 1291.396
694.500 672.500 1291.396
694.500 674.500 1291.402
884.500 880.500 1291.560
886.500 878.500 1291.594
886.500 880.500 1291.591
886.500 880.500 1291.591
886.500 882.500 1291.551
888.500 880.500 1291.595
994.500 828.500 1293.427
996.500 826.500 1293.426
996.500 828.500 1293.433
958.500 778.500 1293.798
960.500 776.500 1293.795
960.500 778.500 1293.788
716.500 622.500 1294.271
716.500 624.500 1294.273
718.500 622.500 1294.183
994.500 734.500 1295.952
996.500 732.500 1295.946
996.500 734.500 1295.961
480.500 538.500 1299.077
480.500 540.500 1299.103
482.500 538.500 1299.040
474.500 538.500 1299.088
474.500 540.500 1299.025
476.500 538.500 1299.114
502.500 544.500 1300.004
502.500 546.500 1300.003
504.500 544.500 1299.986
604.500 552.500 1303.651
606.500 550.500 1303.539
606.500 552.500 1303.646
338.500 578.500 1303.707
340.500 576.500 1303.702
340.500 578.500 1303.710
386.500 598.500 1304.989
386.500 600.500 1304.936
388.500 598.500 1305.002
546.500 998.500 1305.299
548.500 996.500 1305.310
548.500 998.500 1305.304
494.500 594.500 1305.329
494.500 596.500 1305.297
496.500 594.500 1305.341
610.500 618.500 1307.119
610.500 620.500 1307.070
612.500 618.500 1307.122
608.500 618.500 1307.079
610.500 616.500 1307.133
610.500 618.500 1307.119
600.500 642.500 1308.530
600.500 644.500 1308.518
602.500 642.500 1308.553
182.500 636.500 1312.792
184.500 634.500 1312.797
184.500 636.500 1312.813
570.500 684.500 1314.063
570.500 686.500 1314.055
572.500 684.500 1314.052
450.500 716.500 1314.902
450.500 718.500 1314.899
452.500 716.500 1314.891
514.500 702.500 1315.761
516.500 700.500 1315.798
516.500 702.500 1315.798
516.500 704.500 1315.768
518.500 702.500 1315.814
518.500 704.500 1315.812
522.500 706.500 1315.835
524.500 704.500 1315.840
524.500 706.500 1315.845
520.500 706.500 1315.806
522.500 704.500 1315.848
522.500 706.500 1315.835
472.500 682.500 1316.147
474.500 680.500 1316.154
474.500 682.500 1316.145
522.500 680.500 1317.121
524.500 678.500 1317.175
524.500 680.500 1317.138
446.500 674.500 1317.201
446.500 676.500 1317.140
448.500 674.500 1317.204
428.500 664.500 1317.196
428.500 666.500 1317.228
430.500 664.500 1317.084
422.500 662.500 1317.260
424.500 660.500 1317.068
424.500 662.500 1317.249
424.500 662.500 1317.249
424.500 664.500 1317.273
426.500 662.500 1317.161
508.500 676.500 1317.291
508.500 678.500 1317.323
510.500 676.500 1317.285
460.500 946.500 1318.364
460.500 948.500 1318.352
462.500 946.500 1318.356
488.500 922.500 1319.679
488.500 924.500 1319.680
490.500 922.500 1319.672
512.500 924.500 1320.022
512.500 926.500 1320.029
514.500 924.500 1320.033
324.500 734.500 1320.084
324.500 736.500 1320.108
326.500 734.500 1320.047
382.500 738.500 1320.253
382.500 740.500 1320.261
384.500 738.500 1320.233
548.500 892.500 1320.573
548.500 894.500 1320.574
550.500 892.500 1320.562
352.500 754.500 1320.845
352.500 756.500 1320.846
354.500 754.500 1320.781
350.500 820.500 1321.107
350.500 822.500 1321.112
352.500 820.500 1321.034
346.500 820.500 1321.135
346.500 822.500 1321.057
348.500 820.500 1321.143
344.500 818.500 1321.156
344.500 820.500 1321.078
346.500 818.500 1321.162
334.500 808.500 1321.350
334.500 810.500 1321.365
336.500 808.500 1321.273
396.500 716.500 1321.354
396.500 718.500 1321.281
398.500 716.500 1321.365
330.500 810.500 1321.321
332.500 808.500 1321.387
332.500 810.500 1321.361
466.500 842.500 1322.897
468.500 840.500 1322.902
468.500 842.500 1322.898
442.500 894.500 1323.173
442.500 896.500 1323.206
444.500 894.500 1323.140
454.500 774.500 1323.264
456.500 772.500 1323.278
456.500 774.500 1323.259
474.500 870.500 1323.724
476.500 868.500 1323.745
476.500 870.500 1323.729
396.500 798.500 1323.845
398.500 796.500 1323.871
398.500 798.500 1323.847
488.500 802.500 1324.327
488.500 804.500 1324.328
490.500 802.500 1324.304
338.500 890.500 1332.266
338.500 892.500 1332.281
340.500 890.500 1332.262
310.500 992.500 1336.805
312.500 990.500 1336.797
312.500 992.500 1336.806
234.500 930.500 1339.875
234.500 932.500 1339.863
236.500 930.500 1339.881
158.500 790.500 1342.411
158.500 792.500 1342.529
160.500 790.500 1342.451
190.500 936.500 1345.549
192.500 934.500 1345.615
192.500 936.500 1345.597
132.500 842.500 1346.298
134.500 840.500 1346.287
134.500 842.500 1346.307
162.500 918.500 1346.634
162.500 920.500 1346.669
164.500 918.500 1346.588
116.500 828.500 1347.046
116.500 830.500 1347.017
118.500 828.500 1347.067
64.500 872.500 1354.530
66.500 870.500 1354.423
66.500 872.500 1354.492
52.500 906.500 1356.104
54.500 904.500 1356.065
54.500 906.500 1356.078
10.500 994.500 1372.095
10.500 996.500 1372.104
12.500 994.500 1372.082
CELLS 299 939
1 0
1 1
1 2
1 3
1 4
1 5
1 6
1 7
1 8
1 9
1 10
1 11
1 12
1 13
1 14
1 15
1 16
1 17
1 18
1 19
1 20
1 21
1 22
1 23
1 24
1 25
1 26
1 27
1 28
1 29
1 30
1 31
1 32
1 33
1 34
1 35
1 36
1 37
1 38
1 39
1 40
1 41
1 42
1 43
1 44
1 45
1 46
1 47
1 48
1 49
1 50
1 51
1 52
1 53
2 54 55
2 56 57
2 58 59
2 60 61
2 62 63
2 64 65
2 66 67
2 68 69
2 70 71
2 72 73
2 74 75
2 76 77
2 78 79
2 80 81
2 82 83
2 84 85
2 86 87
2 88 89
2 90 91
2 92 93
2 94 95
2 96 97
2 98 99
2 100 101
2 102 103
2 104 105
2 106 107
2 108 109
2 110 111
2 112 113
2 114 115
2 116 117
2 118 119
2 120 121
2 122 123
2 124 125
2 126 127
2 128 129
2 130 131
2 132 133
2 134 135
2 136 137
2 138 139
2 140 141
2 142 143
2 144 145
2 146 147
2 148 149
2 150 151
2 152 153
2 154 155
2 156 157
2 158 159
2 160 161
2 162 163
2 164 165
2 166 167
2 168 169
2 170 171
2 172 173
2 174 175
2 176 177
2 178 179
2 180 181
2 182 183
2 184 185
2 186 187
2 188 189
2 190 191
2 192 193
2 194 195
2 196 197
2 198 199
2 200 201
2 202 203
2 204 205
2 206 207
2 208 209
2 210 211
2 212 213
2 214 215
2 216 217
2 218 219
2 220 221
2 222 223
2 224 225
2 226 227
2 228 229
2 230 231
2 232 233
2 234 235
2 236 237
2 238 239
2 240 241
2 242 243
2 244 245
2 246 247
2 248 249
2 250 251
2 252 253
2 254 255
2 256 257
2 258 259
2 260 261
2 262 263
2 264 265
2 266 267
2 268 269
2 270 271
2 272 273
2 274 275
2 276 277
2 278 279
2 280 281
2 282 283
2 284 285
2 286 287
2 288 289
2 290 291
2 292 293
2 294 295
2 296 297
2 298 299
2 300 301
2 302 303
2 304 305
2 306 307
2 308 309
2 310 311
2 312 313
2 314 315
2 316 317
2 318 319
2 320 321
2 322 323
2 324 325
2 326 327
2 328 329
2 330 331
2 332 333
2 334 335
2 336 337
2 338 339
2 340 341
2 342 343
2 344 345
2 346 347
2 348 349
2 350 351
3 352 353 354
3 355 356 357
3 358 359 360
3 361 362 363
3 364 365 366
3 367 368 369
3 370 371 372
3 373 374 375
3 376 377 378
3 379 380 381
3 382 383 384
3 385 386 387
3 388 389 390
3 391 392 393
3 394 395 396
3 397 398 399
3 400 401 402
3 403 404 405
3 406 407 408
3 409 410 411
3 412 413 414
3 415 416 417
3 418 419 420
3 421 422 423
3 424 425 426
3 427 428 429
3 430 431 432
3 433 434 435
3 436 437 438
3 439 440 441
3 442 443 444
3 445 446 447
3 448 449 450
3 451 452 453
3 454 455 456
3 457 458 459
3 460 461 462
3 463 464 465
3 466 467 468
3 469 470 471
3 472 473 474
3 475 476 477
3 478 479 480
3 481 482 483
3 484 485 486
3 487 488 489
3 490 491 492
3 493 494 495
3 496 497 498
3 499 500 501
3 502 503 504
3 505 506 507
3 508 509 510
3 511 512 513
3 514 515 516
3 517 518 519
3 520 521 522
3 523 524 525
3 526 527 528
3 529 530 531
3 532 533 534
3 535 536 537
3 538 539 540
3 541 542 543
3 544 545 546
3 547 548 549
3 550 551 552
3 553 554 555
3 556 557 558
3 559 560 561
3 562 563 564
3 565 566 567
3 568 569 570
3 571 572 573
3 574 575 576
3 577 578 579
3 580 581 582
3 583 584 585
3 586 587 588
3 589 590 591
3 592 593 594
3 595 596 597
3 598 599 600
3 601 602 603
3 604 605 606
3 607 608 609
3 610 611 612
3 613 614 615
3 616 617 618
3 619 620 621
3 622 623 624
3 625 626 627
3 628 629 630
3 631 632 633
3 634 635 636
3 637 638 639
CELL_TYPES 299
1 1 1 1 1 1 1 1 1 1 1 1 1 1 1 1 1 1 1 1 1 1 1 1 1 1 1 1 1 1 1 1 1 1 1 1 1 1 1 1 1 1 1 1 1 1 1 1 1 1 1 1 1 1 
3 3 3 3 3 3 3 3 3 3 3 3 3 3 3 3 3 3 3 3 3 3 3 3 3 3 3 3 3 3 3 3 3 3 3 3 3 3 3 3 3 3 3 3 3 3 3 3 3 3 3 3 3 3 3 3 3 3 3 3 3 3 3 3 3 3 3 3 3 3 3 3 3 3 3 3 3 3 3 3 3 3 3 3 3 3 3 3 3 3 3 3 3 3 3 3 3 3 3 3 3 3 3 3 3 3 3 3 3 3 3 3 3 3 3 3 3 3 3 3 3 3 3 3 3 3 3 3 3 3 3 3 3 3 3 3 3 3 3 3 3 3 3 3 3 3 3 3 3 
5 5 5 5 5 5 5 5 5 5 5 5 5 5 5 5 5 5 5 5 5 5 5 5 5 5 5 5 5 5 5 5 5 5 5 5 5 5 5 5 5 5 5 5 5 5 5 5 5 5 5 5 5 5 5 5 5 5 5 5 5 5 5 5 5 5 5 5 5 5 5 5 5 5 5 5 5 5 5 5 5 5 5 5 5 5 5 5 5 5 5 5 5 5 5 5 
CELL_DATA 299
FIELD FieldData 1
cp_type 1 299 int
0 0 0 0 0 0 0 0 0 0 0 0 0 0 0 0 0 0 0 0 0 0 0 0 0 0 0 0 0 0 0 0 0 0 0 0 0 0 0 0 0 0 0 0 0 0 0 0 0 0 0 0 0 0 
1 1 1 1 1 1 1 1 1 1 1 1 1 1 1 1 1 1 1 1 1 1 1 1 1 1 1 1 1 1 1 1 1 1 1 1 1 1 1 1 1 1 1 1 1 1 1 1 1 1 1 1 1 1 1 1 1 1 1 1 1 1 1 1 1 1 1 1 1 1 1 1 1 1 1 1 1 1 1 1 1 1 1 1 1 1 1 1 1 1 1 1 1 1 1 1 1 1 1 1 1 1 1 1 1 1 1 1 1 1 1 1 1 1 1 1 1 1 1 1 1 1 1 1 1 1 1 1 1 1 1 1 1 1 1 1 1 1 1 1 1 1 1 1 1 1 1 1 1 
2 2 2 2 2 2 2 2 2 2 2 2 2 2 2 2 2 2 2 2 2 2 2 2 2 2 2 2 2 2 2 2 2 2 2 2 2 2 2 2 2 2 2 2 2 2 2 2 2 2 2 2 2 2 2 2 2 2 2 2 2 2 2 2 2 2 2 2 2 2 2 2 2 2 2 2 2 2 2 2 2 2 2 2 2 2 2 2 2 2 2 2 2 2 2 2 
