# vtk DataFile Version 2.0

ASCII 
DATASET UNSTRUCTURED_GRID

POINTS 11586 float
374.500000 4.500000 1159.197632 
376.500000 4.500000 1159.199585 
378.500000 4.500000 1159.207153 
380.500000 2.500000 1159.210205 
382.500000 2.500000 1159.219360 
384.500000 2.500000 1159.239624 
386.500000 2.500000 1159.278198 
388.500000 2.500000 1159.342896 
390.500000 0.500000 1159.418945 
392.500000 0.500000 1159.526123 
394.500000 0.500000 1159.677979 
396.500000 0.500000 1159.879272 
398.500000 0.500000 1160.132324 
400.500000 0.500000 1160.437012 
402.500000 0.500000 1160.791260 
404.500000 0.500000 1161.190918 
406.500000 0.500000 1161.630737 
408.500000 0.500000 1162.104370 
410.500000 0.500000 1162.605225 
412.500000 0.500000 1163.125732 
414.500000 0.500000 1163.659302 
416.500000 0.500000 1164.199463 
418.500000 0.500000 1164.741333 
420.500000 0.500000 1165.281982 
422.500000 0.500000 1165.820679 
424.500000 0.500000 1166.359009 
426.500000 0.500000 1166.900879 
428.500000 0.500000 1167.451660 
430.500000 0.500000 1168.017090 
432.500000 0.500000 1168.602295 
434.500000 0.500000 1169.210938 
436.500000 0.500000 1169.843872 
438.500000 0.500000 1170.499756 
440.500000 0.500000 1171.174927 
442.500000 0.500000 1171.864014 
444.500000 0.500000 1172.561157 
446.500000 0.500000 1173.260864 
448.500000 0.500000 1173.959106 
450.500000 0.500000 1174.653564 
452.500000 0.500000 1175.343750 
454.500000 0.500000 1176.031006 
456.500000 0.500000 1176.718018 
458.500000 0.500000 1177.407959 
460.500000 0.500000 1178.104248 
462.500000 0.500000 1178.810181 
464.500000 0.500000 1179.528809 
466.500000 0.500000 1180.262085 
468.500000 0.500000 1181.011230 
470.500000 0.500000 1181.776367 
472.500000 0.500000 1182.556274 
474.500000 0.500000 1183.347900 
476.500000 0.500000 1184.146606 
478.500000 0.500000 1184.946655 
480.500000 0.500000 1185.740723 
482.500000 0.500000 1186.521729 
484.500000 0.500000 1187.283569 
486.500000 0.500000 1188.022583 
488.500000 0.500000 1188.737793 
490.500000 0.500000 1189.431274 
492.500000 0.500000 1190.108521 
494.500000 0.500000 1190.776611 
496.500000 0.500000 1191.443726 
498.500000 0.500000 1192.118408 
500.500000 0.500000 1192.808105 
502.500000 0.500000 1193.519287 
504.500000 0.500000 1194.256958 
506.500000 0.500000 1195.023438 
508.500000 0.500000 1195.818481 
510.500000 0.500000 1196.638794 
512.500000 0.500000 1197.477905 
514.500000 0.500000 1198.326904 
516.500000 0.500000 1199.176025 
518.500000 0.500000 1200.016846 
520.500000 0.500000 1200.843628 
522.500000 0.500000 1201.655273 
524.500000 0.500000 1202.454346 
526.500000 0.500000 1203.246094 
528.500000 0.500000 1204.036011 
530.500000 0.500000 1204.827393 
532.500000 0.500000 1205.619995 
588.500000 0.500000 1206.274170 
590.500000 0.500000 1206.169067 
534.500000 0.500000 1206.409546 
586.500000 0.500000 1206.518799 
584.500000 0.500000 1206.896606 
536.500000 0.500000 1207.188110 
582.500000 0.500000 1207.390991 
538.500000 0.500000 1207.946533 
580.500000 0.500000 1207.977783 
578.500000 0.500000 1208.627319 
540.500000 0.500000 1208.675537 
576.500000 0.500000 1209.307617 
542.500000 0.500000 1209.367310 
574.500000 0.500000 1209.987793 
544.500000 0.500000 1210.015869 
546.500000 0.500000 1210.615967 
572.500000 0.500000 1210.639160 
548.500000 0.500000 1211.162476 
570.500000 0.500000 1211.236938 
550.500000 0.500000 1211.648926 
568.500000 0.500000 1211.759888 
552.500000 0.500000 1212.066284 
566.500000 0.500000 1212.190918 
554.500000 0.500000 1212.403687 
564.500000 0.500000 1212.516235 
556.500000 0.500000 1212.648926 
562.500000 0.500000 1212.726807 
558.500000 0.500000 1212.790161 
560.500000 0.500000 1212.817871 
390.500000 2.500000 1159.442139 
392.500000 2.500000 1159.583740 
394.500000 2.500000 1159.773315 
394.500000 4.500000 1160.007568 
396.500000 4.500000 1160.292603 
398.500000 4.500000 1160.628540 
400.500000 4.500000 1161.011475 
402.500000 4.500000 1161.436157 
404.500000 4.500000 1161.896362 
406.500000 4.500000 1162.385254 
408.500000 4.500000 1162.896484 
410.500000 4.500000 1163.423828 
410.500000 6.500000 1164.007935 
410.500000 8.500000 1164.662964 
410.500000 10.500000 1165.363403 
410.500000 12.500000 1166.089600 
410.500000 14.500000 1166.827393 
410.500000 16.500000 1167.567505 
410.500000 18.500000 1168.305786 
410.500000 20.500000 1169.042603 
410.500000 22.500000 1169.781616 
410.500000 24.500000 1170.529053 
410.500000 26.500000 1171.291504 
410.500000 28.500000 1172.074829 
410.500000 30.500000 1172.882446 
410.500000 32.500000 1173.715332 
410.500000 34.500000 1174.571777 
410.500000 36.500000 1175.448853 
410.500000 38.500000 1176.343140 
410.500000 40.500000 1177.251099 
410.500000 42.500000 1178.169800 
410.500000 44.500000 1179.095703 
410.500000 46.500000 1180.025391 
410.500000 48.500000 1180.955078 
410.500000 50.500000 1181.881836 
410.500000 52.500000 1182.803589 
410.500000 54.500000 1183.720459 
410.500000 56.500000 1184.634155 
410.500000 58.500000 1185.547729 
410.500000 60.500000 1186.465454 
410.500000 62.500000 1187.392090 
410.500000 64.500000 1188.333130 
410.500000 66.500000 1189.294678 
410.500000 68.500000 1190.281860 
410.500000 70.500000 1191.297852 
410.500000 72.500000 1192.341797 
410.500000 74.500000 1193.407959 
410.500000 76.500000 1194.486694 
410.500000 78.500000 1195.566406 
410.500000 80.500000 1196.635742 
410.500000 82.500000 1197.686890 
410.500000 84.500000 1198.717651 
410.500000 86.500000 1199.730469 
410.500000 88.500000 1200.732178 
410.500000 90.500000 1201.730713 
410.500000 92.500000 1202.732178 
410.500000 94.500000 1203.738647 
410.500000 96.500000 1204.746460 
410.500000 98.500000 1205.747070 
592.500000 0.500000 1206.199585 
594.500000 0.500000 1206.353516 
410.500000 100.500000 1206.729004 
594.500000 2.500000 1206.905151 
594.500000 4.500000 1207.636230 
410.500000 102.500000 1207.680054 
594.500000 6.500000 1208.495361 
410.500000 104.500000 1208.590454 
594.500000 8.500000 1209.431030 
410.500000 106.500000 1209.454346 
410.500000 108.500000 1210.271118 
594.500000 10.500000 1210.395752 
410.500000 110.500000 1211.044556 
594.500000 12.500000 1211.348877 
410.500000 112.500000 1211.782837 
594.500000 14.500000 1212.259033 
410.500000 114.500000 1212.496216 
594.500000 16.500000 1213.103271 
410.500000 116.500000 1213.195923 
594.500000 18.500000 1213.867798 
410.500000 118.500000 1213.893311 
594.500000 20.500000 1214.547119 
410.500000 120.500000 1214.597900 
594.500000 22.500000 1215.142456 
410.500000 122.500000 1215.316284 
594.500000 24.500000 1215.661011 
410.500000 124.500000 1216.050903 
594.500000 26.500000 1216.113525 
594.500000 28.500000 1216.513794 
410.500000 126.500000 1216.798706 
594.500000 30.500000 1216.876221 
594.500000 32.500000 1217.215698 
594.500000 34.500000 1217.545654 
410.500000 128.500000 1217.551636 
594.500000 36.500000 1217.877563 
594.500000 38.500000 1218.219727 
410.500000 130.500000 1218.297119 
594.500000 40.500000 1218.576782 
594.500000 42.500000 1218.949097 
410.500000 132.500000 1219.020996 
594.500000 44.500000 1219.333740 
410.500000 134.500000 1219.709839 
594.500000 46.500000 1219.725464 
594.500000 48.500000 1220.117798 
410.500000 136.500000 1220.354858 
594.500000 50.500000 1220.504883 
594.500000 52.500000 1220.882446 
410.500000 138.500000 1220.953857 
594.500000 54.500000 1221.248291 
410.500000 140.500000 1221.511963 
594.500000 56.500000 1221.602905 
594.500000 58.500000 1221.947998 
410.500000 142.500000 1222.039917 
594.500000 60.500000 1222.286865 
410.500000 144.500000 1222.552246 
594.500000 62.500000 1222.623657 
594.500000 64.500000 1222.962524 
412.500000 144.500000 1223.052734 
592.500000 66.500000 1223.306885 
412.500000 146.500000 1223.543945 
592.500000 68.500000 1223.625854 
592.500000 70.500000 1223.951782 
414.500000 146.500000 1224.024414 
592.500000 72.500000 1224.289551 
416.500000 146.500000 1224.504395 
592.500000 74.500000 1224.644043 
418.500000 146.500000 1224.982910 
590.500000 76.500000 1224.987305 
590.500000 78.500000 1225.324707 
420.500000 146.500000 1225.457520 
590.500000 80.500000 1225.696045 
422.500000 146.500000 1225.923706 
588.500000 82.500000 1226.049316 
424.500000 146.500000 1226.375732 
586.500000 84.500000 1226.454468 
426.500000 146.500000 1226.808594 
584.500000 86.500000 1226.890869 
428.500000 146.500000 1227.220459 
582.500000 88.500000 1227.340820 
430.500000 146.500000 1227.614136 
580.500000 90.500000 1227.789062 
432.500000 146.500000 1227.997070 
578.500000 92.500000 1228.222046 
434.500000 146.500000 1228.379150 
576.500000 94.500000 1228.629639 
436.500000 146.500000 1228.769165 
574.500000 96.500000 1229.011597 
438.500000 146.500000 1229.171997 
572.500000 98.500000 1229.381470 
440.500000 146.500000 1229.586426 
570.500000 100.500000 1229.759644 
442.500000 146.500000 1230.005859 
568.500000 102.500000 1230.156372 
444.500000 146.500000 1230.421265 
566.500000 104.500000 1230.560547 
446.500000 146.500000 1230.823730 
564.500000 106.500000 1230.945312 
448.500000 146.500000 1231.208496 
562.500000 108.500000 1231.284546 
560.500000 110.500000 1231.568237 
450.500000 146.500000 1231.575684 
558.500000 112.500000 1231.805176 
452.500000 146.500000 1231.929077 
556.500000 114.500000 1232.014893 
554.500000 114.500000 1232.190674 
454.500000 146.500000 1232.273682 
552.500000 116.500000 1232.367554 
550.500000 116.500000 1232.530884 
456.500000 146.500000 1232.612305 
548.500000 118.500000 1232.695923 
546.500000 118.500000 1232.849243 
458.500000 146.500000 1232.943848 
544.500000 120.500000 1232.998169 
542.500000 120.500000 1233.133545 
460.500000 146.500000 1233.263428 
540.500000 122.500000 1233.264771 
538.500000 122.500000 1233.379028 
536.500000 122.500000 1233.491943 
462.500000 146.500000 1233.563599 
534.500000 122.500000 1233.603149 
532.500000 124.500000 1233.709229 
530.500000 124.500000 1233.810913 
464.500000 146.500000 1233.837891 
528.500000 124.500000 1233.914673 
526.500000 124.500000 1234.020874 
[...]
POINT_DATA 11586 
FIELD FieldData 1
originalField_1 1 11586 float
1159.197632 1159.199585 1159.207153 1159.210205 1159.219360 1159.239624 1159.278198 1159.342896 1159.418945 1159.526123 1159.677979 1159.879272 1160.132324 1160.437012 1160.791260 1161.190918 1161.630737 1162.104370 1162.605225 1163.125732 1163.659302 1164.199463 1164.741333 1165.281982 1165.820679 1166.359009 1166.900879 1167.451660 1168.017090 1168.602295 1169.210938 1169.843872 1170.499756 1171.174927 1171.864014 1172.561157 1173.260864 1173.959106 1174.653564 1175.343750 1176.031006 1176.718018 1177.407959 1178.104248 1178.810181 1179.528809 1180.262085 1181.011230 1181.776367 1182.556274 1183.347900 1184.146606 1184.946655 1185.740723 1186.521729 1187.283569 1188.022583 1188.737793 1189.431274 1190.108521 1190.776611 1191.443726 1192.118408 1192.808105 1193.519287 1194.256958 1195.023438 1195.818481 1196.638794 1197.477905 1198.326904 1199.176025 1200.016846 1200.843628 1201.655273 1202.454346 1203.246094 1204.036011 1204.827393 1205.619995 1206.274170 1206.169067 1206.409546 1206.518799 1206.896606 1207.188110 1207.390991 1207.946533 1207.977783 1208.627319 1208.675537 1209.307617 1209.367310 1209.987793 1210.015869 1210.615967 1210.639160 1211.162476 1211.236938 1211.648926 1211.759888 1212.066284 1212.190918 1212.403687 1212.516235 1212.648926 1212.726807 1212.790161 1212.817871 1159.442139 1159.583740 1159.773315 1160.007568 1160.292603 1160.628540 1161.011475 1161.436157 1161.896362 1162.385254 1162.896484 1163.423828 1164.007935 1164.662964 1165.363403 1166.089600 1166.827393 1167.567505 1168.305786 1169.042603 1169.781616 1170.529053 1171.291504 1172.074829 1172.882446 1173.715332 1174.571777 1175.448853 1176.343140 1177.251099 1178.169800 1179.095703 1180.025391 1180.955078 1181.881836 1182.803589 1183.720459 1184.634155 1185.547729 1186.465454 1187.392090 1188.333130 1189.294678 1190.281860 1191.297852 1192.341797 1193.407959 1194.486694 1195.566406 1196.635742 1197.686890 1198.717651 1199.730469 1200.732178 1201.730713 1202.732178 1203.738647 1204.746460 1205.747070 1206.199585 1206.353516 1206.729004 1206.905151 1207.636230 1207.680054 1208.495361 1208.590454 1209.431030 1209.454346 1210.271118 1210.395752 1211.044556 1211.348877 1211.782837 1212.259033 1212.496216 1213.103271 1213.195923 1213.867798 1213.893311 1214.547119 1214.597900 1215.142456 1215.316284 1215.661011 1216.050903 1216.113525 1216.513794 1216.798706 1216.876221 1217.215698 1217.545654 1217.551636 1217.877563 1218.219727 1218.297119 1218.576782 1218.949097 1219.020996 1219.333740 1219.709839 1219.725464 1220.117798 1220.354858 1220.504883 1220.882446 1220.953857 1221.248291 1221.511963 1221.602905 1221.947998 1222.039917 1222.286865 1222.552246 1222.623657 1222.962524 1223.052734 1223.306885 1223.543945 1223.625854 1223.951782 1224.024414 1224.289551 1224.504395 1224.644043 1224.982910 1224.987305 1225.324707 1225.457520 1225.696045 1225.923706 1226.049316 1226.375732 1226.454468 1226.808594 1226.890869 1227.220459 1227.340820 1227.614136 1227.789062 1227.997070 1228.222046 1228.379150 1228.629639 1228.769165 1229.011597 1229.171997 1229.381470 1229.586426 1229.759644 1230.005859 1230.156372 1230.421265 1230.560547 1230.823730 1230.945312 1231.208496 1231.284546 1231.568237 1231.575684 1231.805176 1231.929077 1232.014893 1232.190674 1232.273682 1232.367554 1232.530884 1232.612305 1232.695923 1232.849243 1232.943848 1232.998169 1233.133545 1233.263428 1233.264771 1233.379028 1233.491943 1233.563599 1233.603149 1233.709229 1233.810913 1233.837891 1233.914673 1234.020874 1234.073975 1234.129272 1234.239258 1234.274780 1234.349976 1234.443481 1234.460693 1234.563354 1234.586304 1234.663818 1234.711548 1234.762573 1234.814697 1234.859619 1234.911987 1234.946899 1235.013672 1235.025269 1235.101440 1235.107666 1235.166016 1235.194092 1235.219727 1235.263306 1235.270630 1235.302124 1235.315430 1235.331055 1235.335938 1235.340210 1163.961670 1164.504395 1165.047363 1165.586670 1166.120239 1166.648071 1167.172607 1167.698120 1168.231201 1168.778931 1169.348022 1169.928711 1170.523315 1171.149048 1171.806030 1172.492065 1173.202148 1173.929932 1174.668579 1175.411987 1176.155029 1176.894531 1177.629272 1178.359741 1179.087524 1179.815063 1180.545410 1181.280762 1182.022827 1182.772583 1183.529297 1184.291016 1185.054810 1185.816528 1186.571289 1187.314087 1188.041016 1188.749756 1189.440674 1190.117310 1190.785278 1191.452393 1192.126465 1192.814087 1193.520386 1194.248413 1194.999756 1195.775513 1196.576294 1197.401978 1198.242920 1199.105225 1199.986816 1200.883057 1201.821289 1202.789917 1203.764160 1204.731445 1205.691040 1206.651001 1207.624878 1208.625610 1209.661377 1210.729980 1211.818115 1212.902588 1213.955200 1214.949951 1215.869751 1216.709961 1217.479858 1218.198975 1218.891602 1219.580688 1220.282593 1221.003540 1221.740479 1222.482910 1223.216553 1223.927856 1224.607910 1225.254639 1225.874023 1226.478149 1227.080566 1227.691772 1228.316406 1228.951782 1229.590088 1230.221191 1230.836304 1231.430176 1232.000732 1232.548218 1233.072021 1233.269165 1233.402100 1233.530518 1233.569092 1233.653809 1233.772461 1233.887817 1234.001709 1234.031982 1234.115479 1234.230225 1234.346191 1234.449829 1234.461548 1234.578125 1234.697510 1234.810181 1234.820557 1234.947388 1235.078735 1235.101318 1235.213257 1235.315552 1235.338257 1235.439209 1235.450195 1235.501099 1235.509155 1172.280396 1171.970337 1172.893188 1173.764648 1174.833252 1176.030640 1177.291626 1178.563599 1179.810547 1181.015137 1182.175537 1183.300903 1184.404541 1185.500000 1186.596558 1187.698120 1188.803955 1189.910645 1191.013916 1192.109741 1193.195801 1194.271118 1195.335571 1196.390259 1197.437988 1198.484009 1199.536865 1200.608521 1201.713501 1202.866089 1204.077271 1205.350952 1206.680420 1208.047729 1209.424072 1210.774414 1212.062866 1213.259521 1214.345093 1215.313965 1216.173340 1216.940552 1217.638184 1218.288940 1218.911987 1219.519897 1220.118286 1220.706177 1221.277344 1221.822876 1222.333496 1222.802856 1223.229980 1223.621094 1223.990601 1224.359497 1224.751953 1225.190063 1225.689209 1226.254272 1226.878784 1227.546387 1228.234741 1228.919312 1229.577637 1230.193359 1230.758423 1231.275391 1231.757812 1232.230225 1232.725586 1233.281372 1233.932373 1234.702759 1235.597168 1236.595825 1237.654785 1238.712891 1239.703857 1240.569092 1240.888794 1240.889893 1240.903564 1240.941650 1241.004517 1241.088501 1241.187500 1241.268188 1241.294434 1241.403687 1241.511475 1241.616699 1241.719971 1241.780151 1241.822510 1241.925049 1242.025513 1242.068848 1242.118164 1242.191284 1242.195801 1242.225830 1206.612915 1206.958496 1207.373779 1207.847656 1208.376709 1208.888916 1209.407349 1209.978149 1210.518066 1211.059448 1211.660767 1212.175903 1212.780640 1213.315308 1213.916382 1214.476074 1215.080200 1215.654785 1216.260986 1216.840698 1217.440674 1218.127686 1218.884277 1219.684326 1220.497559 1221.292603 1222.041870 1222.724121 1223.326782 1223.846436 1224.288330 1224.664307 1224.989868 1225.281860 1225.555420 1225.822876 1226.093018 1226.372559 1226.666748 1226.981323 1227.323364 1227.701050 1228.122559 1228.594849 1229.121826 1229.703247 1230.333496 1231.002930 1231.697632 1232.402466 1233.102173 1233.784180 1234.439331 1235.063110 1235.656250 1236.223755 1236.774658 1237.320679 1237.873901 1238.444702 1239.038574 1239.655884 1240.274658 1240.862061 1240.896606 1240.918335 1240.946777 1240.954468 1240.979614 1241.032471 1241.121094 1241.248291 1241.408936 1241.414185 1241.591064 1241.779541 1241.923950 1241.959717 1242.121704 1242.262451 1242.370972 1242.385254 1242.498779 1242.612793 1242.734985 1242.736816 1242.853394 1242.977539 1243.009033 1243.099487 1243.183350 1243.202148 1243.264160 1243.264160 1210.617188 1211.338501 1212.149536 1213.047729 1214.019043 1215.039551 1216.078613 1217.102661 1218.080444 1218.961548 1219.738525 1220.420044 1221.010498 1221.520630 1221.965088 1222.360352 1222.722412 1223.065308 1223.399658 1223.732300 1224.066284 1224.401733 1224.737915 1225.073608 1225.409790 1225.749878 1226.099854 1226.468506 1226.865479 1227.300293 1227.781250 1228.313599 1228.899780 1229.539185 1230.228394 1230.961670 1231.731689 1232.529175 1233.343262 1234.161743 1234.971680 1235.760498 1236.517700 1237.236450 1237.914307 1238.553711 1239.160400 1239.741577 1240.302979 1240.846436 1241.121582 1241.233154 1241.337524 1241.367920 1241.456787 1241.590088 1241.733521 1241.857910 1241.880005 1242.021362 1242.151245 1242.266724 1242.301758 1242.369995 1242.467773 1242.568970 1242.681396 1242.683228 1242.809204 1242.949829 1242.986694 1243.093384 1243.201538 1243.223389 1243.319214 1243.324097 1243.359131 1218.015503 1218.598511 1219.159912 1219.716797 1220.259033 1220.784424 1221.304443 1221.796631 1222.293457 1222.752563 1223.226807 1223.654053 1224.106567 1224.503174 1224.925781 1225.302612 1225.689209 1226.055542 1226.410889 1226.765869 1227.097412 1227.436523 1227.755005 1228.080444 1228.388184 1228.693604 1228.994263 1229.277832 1229.550781 1229.814941 1230.071167 1230.312744 1230.544922 1230.773926 1230.996826 1231.230469 1231.470825 1231.717773 1231.975952 1232.253418 1232.559326 1232.902100 1233.286621 1233.714111 1234.181763 1234.683594 1235.211670 1235.763672 1236.323364 1236.862427 1237.374023 1237.874023 1238.367676 1238.862671 1239.366455 1239.884033 1240.415527 1240.954224 1241.487061 1241.994995 1242.456787 1242.851562 1243.163330 1243.237671 1243.217285 1243.286011 1243.331421 1243.383057 1243.390747 1243.458740 1243.509521 1243.511475 1243.549438 1243.559814 1231.208496 1231.418457 1231.622314 1231.811523 1231.992554 1232.162354 1232.318726 1232.454712 1232.578247 1232.692993 1232.804688 1232.907837 1233.028931 1233.171997 1233.345581 1233.562256 1233.835449 1234.174561 1234.580322 1235.042725 1235.541138 1236.049927 1236.544434 1237.008301 1237.438477 1237.846191 1238.253418 1238.685913 1239.165649 1239.703491 1240.295288 1240.921997 1241.552856 1242.150757 1242.678589 1243.104492 1243.219604 1243.238159 1243.266846 1243.301147 1243.320557 1243.335083 1243.396362 1243.407104 1243.491455 1243.578979 1243.585815 1243.629517 1163.470825 1164.119507 1164.816650 1165.541870 1166.280151 1167.021606 1167.761597 1168.500000 1169.240356 1169.988525 1170.750977 1171.532837 1172.337158 1173.164307 1174.012817 1174.879761 1175.762085 1176.657227 1177.562500 1178.474976 1179.391479 1180.308472 1181.223022 1182.133545 1183.039673 1183.942627 1184.844971 1185.749878 1186.661865 1187.586792 1188.531006 1189.501099 1190.501221 1191.531494 1192.586792 1193.657959 1194.732788 1195.799927 1196.851318 1197.883545 1198.898804 1199.902832 1200.902832 1201.904541 1202.910034 1203.916626 1204.917114 1205.901489 1206.859375 1207.781738 1208.663452 1209.503784 1210.305908 1211.076294 1211.823120 1212.554932 1213.280029 1214.005859 1214.737793 1215.478394 1216.226562 1216.976685 1217.719238 1218.442017 1219.133545 1219.785522 1220.395630 1220.968750 1221.515015 1222.048340 1222.581787 1223.124878 1223.681763 1224.250977 1224.827393 1225.404419 1225.976196 1226.437012 1226.539307 1226.822876 1227.092529 1227.225830 1227.609741 1227.637451 1227.990479 1228.176270 1228.342896 1228.658936 1228.711914 1228.945190 1229.210449 1229.246460 1229.448608 1229.692017 1229.780640 1229.929565 1230.182373 1230.312988 1230.434692 1230.680786 1230.839722 1230.930054 1231.182373 1231.354370 1231.441895 1231.714600 1231.849365 1232.004150 1232.308838 1232.316650 1232.640015 1232.750732 1232.979248 1233.149780 1233.316406 1233.518066 1233.671875 1233.864990 1234.049194 1234.204468 1234.439087 1234.551514 1234.830078 1234.919800 1235.210449 1235.318848 1235.571289 1235.753174 1235.907227 1236.218262 1236.223633 1236.509399 1236.728760 1236.789062 1237.067139 1237.267822 1237.351929 1237.647461 1237.841675 1237.952393 1238.261597 1238.453125 1238.568848 1238.872559 1239.104614 1239.178955 1239.542480 1239.796265 1239.981445 1240.512573 1240.521729 1241.140259 1241.266968 1241.842529 1242.010010 1242.564453 1242.723389 1243.227905 1243.377441 1243.757446 1243.947021 1244.110352 1244.293457 1244.360474 1244.392578 1244.415405 1244.433228 1244.492920 1244.567993 1244.655029 1244.752075 1244.779541 1244.859741 1244.980225 1245.051270 1245.117065 1245.256348 1245.273315 1245.430664 1245.445557 1245.614014 1245.633911 1245.817627 1245.838135 1245.980957 1246.118530 1246.133179 1246.235229 1246.343506 1246.457642 1246.502808 1246.549927 1246.657104 1246.747314 1246.838013 1246.907349 1246.941895 1246.986206 1247.033447 1247.102661 1247.161987 1247.233643 1247.327881 1247.423096 1247.437378 1247.550049 1247.685547 1247.833496 1247.968750 1247.993164 1248.157227 1248.315918 1248.460327 1248.510620 1248.603149 1248.749390 1248.878418 1249.000732 1249.034668 1249.130737 1249.234619 1249.343628 1249.460327 1249.512939 1249.563843 1249.689209 1249.821899 1249.919800 1249.988892 1250.171143 1250.235474 1250.344971 1250.447754 1250.483398 1250.553833 1250.560547 1200.192749 1202.175293 1204.384155 1206.732788 1209.096191 1211.332153 1213.319702 1214.994507 1216.363281 1217.490967 1218.471191 1219.394653 1220.325195 1221.289307 1222.281250 1223.281738 1224.281250 1225.291138 1226.330933 1227.408325 1228.512695 1229.630005 1230.758179 1231.912109 1233.016113 1233.117188 1233.133911 1233.254150 1233.392456 1233.540161 1233.698975 1233.873047 1234.058716 1234.247192 1234.395996 1234.436890 1234.628662 1234.821533 1235.015869 1235.213135 1235.415405 1235.620850 1235.744385 1235.828613 1236.047241 1236.276855 1236.515991 1236.762573 1237.015137 1237.109619 1237.263428 1237.505371 1237.751465 1238.010498 1238.252686 1238.391602 1238.520020 1238.797485 1239.102905 1239.426392 1239.477173 1239.796021 1240.169556 1240.291748 1240.589478 1240.841187 1241.010620 1241.215576 1241.446899 1241.554443 1241.876587 1241.985107 1242.284302 1242.568481 1242.665283 1243.000610 1243.279541 1243.290161 1243.528687 1243.712280 1243.855225 1243.958496 1244.026855 1244.032959 1244.069824 1244.100098 1244.130493 1244.171875 1244.231934 1244.316406 1244.428955 1244.572266 1244.736572 1244.747559 1244.954590 1245.190552 1245.337891 1245.449829 1245.724487 1245.837646 1246.005615 1246.271851 1246.284058 1246.552979 1246.679565 1246.807861 1247.047607 1247.078125 1247.274048 1247.459961 1247.491333 1247.705078 1247.807861 1247.921143 1248.116333 1248.144653 1248.378662 1248.400879 1248.623535 1248.690308 1248.877197 1249.008789 1249.135742 1249.361206 1249.395142 1249.651855 1249.733398 1249.904419 1250.103271 1250.153076 1250.399414 1250.453979 1250.645874 1250.780151 1250.894043 1251.083984 1251.144165 1251.368652 1251.394287 1251.632568 1251.640625 1251.866699 1251.877197 1252.056274 1252.096680 1252.214355 1252.291626 1252.352173 1252.448486 1252.455200 1252.549072 1252.583130 1252.617432 1252.674927 1252.687378 1252.724243 1252.734131 1252.740479 1159.356689 1159.526611 1159.774414 1160.090698 1160.468628 1160.903809 1161.393066 1161.933594 1162.521973 1163.153931 1163.824463 1164.527710 1165.257568 1166.008301 1166.774170 1167.550049 1168.331055 1169.113525 1169.896851 1170.683594 1171.479614 1172.292358 1173.128052 1173.988892 1174.871338 1175.766846 1176.664307 1177.552979 1178.425781 1179.280273 1180.118774 1180.947144 1181.773071 1182.603760 1183.444824 1184.299683 1185.169312 1186.053589 1186.951660 1187.863525 1188.791260 1189.738037 1190.708618 1191.707153 1192.735229 1193.791260 1194.868530 1195.956177 1197.040283 1198.106445 1199.142578 1200.141968 1201.105469 1202.041870 1202.965454 1203.893188 1204.839478 1205.812134 1206.809814 1207.822998 1208.836548 1209.834229 1210.802612 1211.732910 1212.621704 1213.468994 1214.277100 1215.049805 1215.793213 1216.516479 1217.232666 1217.956665 1218.702637 1219.479858 1220.290161 1221.126953 1221.977417 1222.825073 1223.653198 1224.448608 1225.203125 1225.914795 1226.587280 1227.227051 1227.841919 1228.437622 1229.015625 1229.573364 1230.104736 1230.602661 1231.062134 1231.481934 1231.866089 1232.223145 1232.563477 1232.894775 1233.224976 1233.562622 1233.911499 1234.263062 1234.622681 1234.983154 1235.355469 1235.727539 1236.118408 1236.512329 1236.922729 1237.336060 1237.749756 1238.161255 1238.553223 1238.931152 1239.284058 1239.616577 1239.965820 1240.356323 1240.812012 1241.346680 1241.956909 1242.618530 1243.291016 1243.926514 1244.481934 1244.930542 1245.267456 1245.510620 1245.693726 1245.858154 1246.042114 1246.274902 1246.572754 1246.940186 1247.371826 1247.857910 1248.386475 1248.947021 1249.531494 1250.133789 1250.749390 1251.374023 1252.002563 1252.628540 1253.244995 1253.845093 1254.423584 1254.977173 1255.505493 1256.009888 1256.492554 1256.955566 1257.398926 1257.820435 1258.214600 1258.573608 1258.887817 1259.147705 1259.275146 1259.274658 1259.285645 1259.304565 1259.328125 1259.341553 1259.346191 1259.359985 1259.361694 1259.372559 1259.394531 1259.429443 1259.477905 1259.480713 1259.520508 1259.555176 1259.563232 1259.579834 1249.268921 1249.415405 1249.571167 1249.737671 1249.917603 1250.116089 1250.342041 1250.606201 1250.894531 1251.230835 1251.604492 1252.002075 1252.426514 1252.869873 1253.325928 1253.789673 1254.258179 1254.728760 1255.199829 1255.669556 1256.135254 1256.593506 1257.040161 1257.470947 1257.875610 1258.209229 1258.502808 1258.749268 1258.951172 1259.121460 1259.270874 1259.297241 1259.329102 1259.376831 1259.400024 1259.429199 1259.473389 1259.502563 1259.520630 1259.546631 1259.572388 1259.573364 1259.590698 1259.604492 1259.609863 1259.620850 1259.622314 1259.622559 1159.200562 1159.209351 1159.225220 1159.250366 1159.287354 1159.366821 1159.486816 1159.636108 1159.800293 1159.962524 1160.108398 1160.231567 1160.336304 1160.433350 1160.535156 1160.649048 1160.768799 1160.899414 1161.029175 1161.159180 1161.281616 1161.398193 1161.506714 1161.607178 1161.701416 1161.792847 1161.884888 1161.977661 1162.074097 1162.176880 1162.283325 1162.385986 1162.478394 1162.556763 1162.621094 1162.675293 1162.727417 1162.785400 1162.850586 1162.922607 1163.003540 1163.086426 1163.166870 1163.249023 1163.324707 1163.396484 1163.473999 1163.552856 1163.635620 1163.732666 1163.844482 1163.954834 1164.080322 1164.219482 1164.349854 1164.493286 1164.625366 1164.756958 1164.878906 1164.990723 1165.100098 1165.216919 1165.345215 1165.479614 1165.609009 1165.725220 1165.824341 1165.909668 1165.994751 1166.080322 1166.165405 1166.251221 1166.340698 1166.437500 1166.537109 1166.643677 1166.756714 1166.868164 1166.980103 1167.098633 1167.212769 1167.335938 1167.456177 1167.581055 1167.690674 1167.797852 1167.900146 1167.989868 1168.087524 1168.200562 1168.314087 1168.450806 1168.597900 1168.761597 1168.925537 1169.077026 1169.208374 1169.321045 1169.426270 1169.539795 1169.642822 1169.753906 1169.870117 1169.972290 1170.083008 1170.202271 1170.320190 1170.423340 1170.508911 1170.587402 1170.669434 1170.776367 1170.911621 1171.064575 1171.217529 1171.354980 1171.472290 1171.577515 1171.687256 1171.816528 1171.969849 1172.139648 1172.310547 1172.468872 1172.609253 1172.735962 1172.859009 1172.987183 1173.123901 1173.260620 1173.381958 1173.494263 1173.584595 1173.642822 1173.695068 1173.757812 1173.856079 1174.005859 1174.200562 1174.435303 1174.687622 1174.972534 1175.280151 1175.602173 1175.932251 1176.266846 1176.604126 1176.941895 1177.276367 1177.601440 1177.910889 1178.199829 1178.466675 1178.708252 1178.934570 1179.154053 1179.375732 1179.608276 1179.856934 1180.122314 1180.399536 1180.679321 1180.951050 1181.206543 1181.442383 1181.660645 1181.868042 1182.073242 1182.275879 1182.481323 1182.697754 1182.909912 1183.128418 1183.347290 1183.560181 1183.777344 1183.979858 1184.188965 1184.386108 1184.591064 1184.788086 1184.991089 1185.195435 1185.393433 1185.587280 1185.776489 1185.963135 1186.149780 1186.326416 1186.512329 1186.693604 1186.887207 1187.083862 1187.298462 1187.526611 1187.772705 1188.049927 1188.330688 1188.639893 1188.973877 1189.307983 1189.658081 1190.020996 1190.391113 11