# vtk DataFile Version 2.0

ASCII 
DATASET UNSTRUCTURED_GRID

POINTS 12313 float
374.500000 4.500000 1159.197632 
376.500000 4.500000 1159.199585 
378.500000 4.500000 1159.207153 
378.500000 2.500000 1159.207153 
380.500000 2.500000 1159.210205 
382.500000 2.500000 1159.219360 
384.500000 2.500000 1159.239624 
386.500000 2.500000 1159.278198 
386.500000 0.500000 1159.310059 
388.500000 0.500000 1159.349609 
390.500000 0.500000 1159.418945 
392.500000 0.500000 1159.526123 
394.500000 0.500000 1159.677979 
396.500000 0.500000 1159.879272 
398.500000 0.500000 1160.132324 
400.500000 0.500000 1160.437012 
402.500000 0.500000 1160.791260 
404.500000 0.500000 1161.190918 
406.500000 0.500000 1161.630737 
408.500000 0.500000 1162.104370 
410.500000 0.500000 1162.605225 
412.500000 0.500000 1163.125732 
414.500000 0.500000 1163.659302 
416.500000 0.500000 1164.199463 
418.500000 0.500000 1164.741333 
420.500000 0.500000 1165.281982 
422.500000 0.500000 1165.820679 
424.500000 0.500000 1166.359009 
426.500000 0.500000 1166.900879 
428.500000 0.500000 1167.451660 
430.500000 0.500000 1168.017090 
432.500000 0.500000 1168.602295 
434.500000 0.500000 1169.210938 
436.500000 0.500000 1169.843872 
438.500000 0.500000 1170.499756 
440.500000 0.500000 1171.174927 
442.500000 0.500000 1171.864014 
444.500000 0.500000 1172.561157 
446.500000 0.500000 1173.260864 
448.500000 0.500000 1173.959106 
450.500000 0.500000 1174.653564 
452.500000 0.500000 1175.343750 
454.500000 0.500000 1176.031006 
456.500000 0.500000 1176.718018 
458.500000 0.500000 1177.407959 
460.500000 0.500000 1178.104248 
462.500000 0.500000 1178.810181 
464.500000 0.500000 1179.528809 
466.500000 0.500000 1180.262085 
468.500000 0.500000 1181.011230 
470.500000 0.500000 1181.776367 
472.500000 0.500000 1182.556274 
474.500000 0.500000 1183.347900 
476.500000 0.500000 1184.146606 
478.500000 0.500000 1184.946655 
480.500000 0.500000 1185.740723 
482.500000 0.500000 1186.521729 
484.500000 0.500000 1187.283569 
486.500000 0.500000 1188.022583 
488.500000 0.500000 1188.737793 
490.500000 0.500000 1189.431274 
492.500000 0.500000 1190.108521 
494.500000 0.500000 1190.776611 
496.500000 0.500000 1191.443726 
498.500000 0.500000 1192.118408 
500.500000 0.500000 1192.808105 
502.500000 0.500000 1193.519287 
504.500000 0.500000 1194.256958 
506.500000 0.500000 1195.023438 
508.500000 0.500000 1195.818481 
510.500000 0.500000 1196.638794 
512.500000 0.500000 1197.477905 
514.500000 0.500000 1198.326904 
516.500000 0.500000 1199.176025 
518.500000 0.500000 1200.016846 
520.500000 0.500000 1200.843628 
522.500000 0.500000 1201.655273 
524.500000 0.500000 1202.454346 
526.500000 0.500000 1203.246094 
528.500000 0.500000 1204.036011 
530.500000 0.500000 1204.827393 
532.500000 0.500000 1205.619995 
588.500000 0.500000 1206.274170 
590.500000 0.500000 1206.169067 
534.500000 0.500000 1206.409546 
586.500000 0.500000 1206.518799 
584.500000 0.500000 1206.896606 
536.500000 0.500000 1207.188110 
582.500000 0.500000 1207.390991 
538.500000 0.500000 1207.946533 
580.500000 0.500000 1207.977783 
578.500000 0.500000 1208.627319 
540.500000 0.500000 1208.675537 
576.500000 0.500000 1209.307617 
542.500000 0.500000 1209.367310 
574.500000 0.500000 1209.987793 
544.500000 0.500000 1210.015869 
546.500000 0.500000 1210.615967 
572.500000 0.500000 1210.639160 
548.500000 0.500000 1211.162476 
570.500000 0.500000 1211.236938 
550.500000 0.500000 1211.648926 
568.500000 0.500000 1211.759888 
552.500000 0.500000 1212.066284 
566.500000 0.500000 1212.190918 
554.500000 0.500000 1212.403687 
564.500000 0.500000 1212.516235 
556.500000 0.500000 1212.648926 
562.500000 0.500000 1212.726807 
558.500000 0.500000 1212.790161 
560.500000 0.500000 1212.817871 
372.500000 4.500000 1159.200562 
370.500000 4.500000 1159.209351 
368.500000 4.500000 1159.225220 
366.500000 4.500000 1159.250366 
366.500000 6.500000 1159.279297 
364.500000 6.500000 1159.315796 
362.500000 6.500000 1159.366821 
362.500000 8.500000 1159.419800 
360.500000 8.500000 1159.486816 
360.500000 10.500000 1159.553467 
360.500000 12.500000 1159.630371 
358.500000 12.500000 1159.706055 
358.500000 14.500000 1159.781860 
356.500000 14.500000 1159.863647 
356.500000 16.500000 1159.930176 
356.500000 18.500000 1160.004272 
354.500000 18.500000 1160.063477 
354.500000 20.500000 1160.125977 
352.500000 20.500000 1160.177246 
352.500000 22.500000 1160.230713 
350.500000 22.500000 1160.276245 
350.500000 24.500000 1160.325928 
348.500000 24.500000 1160.370728 
348.500000 26.500000 1160.422974 
346.500000 26.500000 1160.472046 
346.500000 28.500000 1160.531372 
346.500000 30.500000 1160.623779 
346.500000 32.500000 1160.754272 
346.500000 34.500000 1160.928345 
348.500000 36.500000 1161.239258 
350.500000 38.500000 1161.689819 
352.500000 40.500000 1162.262329 
354.500000 42.500000 1162.933716 
356.500000 44.500000 1163.688477 
358.500000 46.500000 1164.528442 
360.500000 48.500000 1165.473999 
362.500000 50.500000 1166.554565 
364.500000 52.500000 1167.791992 
366.500000 54.500000 1169.183960 
368.500000 56.500000 1170.698242 
370.500000 58.500000 1172.281006 
372.500000 60.500000 1173.874390 
374.500000 62.500000 1175.434082 
376.500000 64.500000 1176.940796 
378.500000 66.500000 1178.399414 
380.500000 68.500000 1179.833740 
382.500000 70.500000 1181.275879 
384.500000 72.500000 1182.756958 
386.500000 74.500000 1184.299683 
388.500000 76.500000 1185.912598 
390.500000 78.500000 1187.590454 
392.500000 80.500000 1189.318481 
394.500000 82.500000 1191.081055 
396.500000 84.500000 1192.869751 
398.500000 86.500000 1194.684814 
400.500000 88.500000 1196.526855 
402.500000 90.500000 1198.387207 
404.500000 92.500000 1200.246094 
406.500000 94.500000 1202.088257 
408.500000 96.500000 1203.916626 
410.500000 98.500000 1205.747070 
588.500000 2.500000 1206.688232 
588.500000 4.500000 1207.308838 
412.500000 100.500000 1207.579224 
588.500000 6.500000 1208.098022 
588.500000 8.500000 1209.015381 
414.500000 102.500000 1209.374390 
590.500000 10.500000 1210.014771 
590.500000 12.500000 1211.032837 
416.500000 104.500000 1211.070557 
590.500000 14.500000 1212.041260 
418.500000 106.500000 1212.622314 
592.500000 16.500000 1212.992554 
592.500000 18.500000 1213.821777 
420.500000 108.500000 1214.027588 
592.500000 20.500000 1214.564209 
592.500000 22.500000 1215.214600 
422.500000 110.500000 1215.321045 
592.500000 24.500000 1215.775391 
592.500000 26.500000 1216.254639 
424.500000 112.500000 1216.546753 
592.500000 28.500000 1216.665649 
592.500000 30.500000 1217.024902 
592.500000 32.500000 1217.350464 
592.500000 34.500000 1217.659912 
426.500000 114.500000 1217.740967 
592.500000 36.500000 1217.968994 
592.500000 38.500000 1218.289673 
592.500000 40.500000 1218.629150 
428.500000 116.500000 1218.934082 
592.500000 42.500000 1218.989502 
592.500000 44.500000 1219.368164 
592.500000 46.500000 1219.759155 
592.500000 48.500000 1220.155029 
430.500000 118.500000 1220.157959 
592.500000 50.500000 1220.548584 
592.500000 52.500000 1220.933594 
592.500000 54.500000 1221.306641 
432.500000 120.500000 1221.443604 
592.500000 56.500000 1221.665894 
592.500000 58.500000 1222.011841 
592.500000 60.500000 1222.345947 
592.500000 62.500000 1222.671021 
434.500000 122.500000 1222.802979 
592.500000 64.500000 1222.989990 
592.500000 66.500000 1223.306885 
590.500000 66.500000 1223.585449 
590.500000 68.500000 1223.854370 
590.500000 70.500000 1224.121094 
436.500000 124.500000 1224.214478 
590.500000 72.500000 1224.393188 
590.500000 74.500000 1224.679199 
588.500000 74.500000 1224.913818 
588.500000 76.500000 1225.141724 
588.500000 78.500000 1225.402466 
438.500000 126.500000 1225.625244 
586.500000 78.500000 1225.634277 
586.500000 80.500000 1225.857300 
586.500000 82.500000 1226.130737 
584.500000 82.500000 1226.336182 
584.500000 84.500000 1226.588379 
582.500000 84.500000 1226.833130 
440.500000 128.500000 1226.970947 
582.500000 86.500000 1227.064331 
582.500000 88.500000 1227.340820 
580.500000 88.500000 1227.547241 
580.500000 90.500000 1227.789062 
578.500000 90.500000 1228.024536 
442.500000 130.500000 1228.195312 
578.500000 92.500000 1228.222046 
578.500000 94.500000 1228.444214 
576.500000 94.500000 1228.629639 
576.500000 96.500000 1228.800049 
576.500000 98.500000 1228.993774 
574.500000 98.500000 1229.136108 
444.500000 132.500000 1229.261597 
574.500000 100.500000 1229.291382 
572.500000 100.500000 1229.473511 
572.500000 102.500000 1229.604370 
572.500000 104.500000 1229.772217 
570.500000 104.500000 1229.950195 
570.500000 106.500000 1230.106812 
446.500000 134.500000 1230.154297 
570.500000 108.500000 1230.295532 
568.500000 108.500000 1230.471558 
568.500000 110.500000 1230.648682 
566.500000 110.500000 1230.842041 
448.500000 136.500000 1230.875977 
566.500000 112.500000 1231.007690 
564.500000 112.500000 1231.194092 
564.500000 114.500000 1231.350708 
450.500000 138.500000 1231.444946 
562.500000 114.500000 1231.514160 
562.500000 116.500000 1231.667114 
560.500000 116.500000 1231.802856 
452.500000 140.500000 1231.892334 
558.500000 116.500000 1231.937622 
558.500000 118.500000 1232.068359 
556.500000 118.500000 1232.179810 
554.500000 118.500000 1232.295288 
454.500000 140.500000 1232.312744 
554.500000 120.500000 1232.414429 
552.500000 120.500000 1232.515015 
550.500000 120.500000 1232.623535 
456.500000 140.500000 1232.716797 
550.500000 122.500000 1232.732910 
548.500000 122.500000 1232.828247 
546.500000 122.500000 1232.930298 
546.500000 124.500000 1233.032715 
458.500000 140.500000 1233.098511 
544.500000 124.500000 1233.121826 
542.500000 124.500000 1233.215210 
540.500000 124.500000 1233.311768 
540.500000 126.500000 1233.406250 
460.500000 140.500000 1233.449707 
538.500000 126.500000 1233.492554 
536.500000 126.500000 1233.580688 
534.500000 126.500000 1233.670288 
532.500000 126.500000 1233.761597 
462.500000 140.500000 1233.762329 
530.500000 126.500000 1233.854980 
528.500000 126.500000 1233.950928 
[...]
POINT_DATA 12313 
FIELD FieldData 1
originalField_1 1 12313 float
1159.197632 1159.199585 1159.207153 1159.207153 1159.210205 1159.219360 1159.239624 1159.278198 1159.310059 1159.349609 1159.418945 1159.526123 1159.677979 1159.879272 1160.132324 1160.437012 1160.791260 1161.190918 1161.630737 1162.104370 1162.605225 1163.125732 1163.659302 1164.199463 1164.741333 1165.281982 1165.820679 1166.359009 1166.900879 1167.451660 1168.017090 1168.602295 1169.210938 1169.843872 1170.499756 1171.174927 1171.864014 1172.561157 1173.260864 1173.959106 1174.653564 1175.343750 1176.031006 1176.718018 1177.407959 1178.104248 1178.810181 1179.528809 1180.262085 1181.011230 1181.776367 1182.556274 1183.347900 1184.146606 1184.946655 1185.740723 1186.521729 1187.283569 1188.022583 1188.737793 1189.431274 1190.108521 1190.776611 1191.443726 1192.118408 1192.808105 1193.519287 1194.256958 1195.023438 1195.818481 1196.638794 1197.477905 1198.326904 1199.176025 1200.016846 1200.843628 1201.655273 1202.454346 1203.246094 1204.036011 1204.827393 1205.619995 1206.274170 1206.169067 1206.409546 1206.518799 1206.896606 1207.188110 1207.390991 1207.946533 1207.977783 1208.627319 1208.675537 1209.307617 1209.367310 1209.987793 1210.015869 1210.615967 1210.639160 1211.162476 1211.236938 1211.648926 1211.759888 1212.066284 1212.190918 1212.403687 1212.516235 1212.648926 1212.726807 1212.790161 1212.817871 1159.200562 1159.209351 1159.225220 1159.250366 1159.279297 1159.315796 1159.366821 1159.419800 1159.486816 1159.553467 1159.630371 1159.706055 1159.781860 1159.863647 1159.930176 1160.004272 1160.063477 1160.125977 1160.177246 1160.230713 1160.276245 1160.325928 1160.370728 1160.422974 1160.472046 1160.531372 1160.623779 1160.754272 1160.928345 1161.239258 1161.689819 1162.262329 1162.933716 1163.688477 1164.528442 1165.473999 1166.554565 1167.791992 1169.183960 1170.698242 1172.281006 1173.874390 1175.434082 1176.940796 1178.399414 1179.833740 1181.275879 1182.756958 1184.299683 1185.912598 1187.590454 1189.318481 1191.081055 1192.869751 1194.684814 1196.526855 1198.387207 1200.246094 1202.088257 1203.916626 1205.747070 1206.688232 1207.308838 1207.579224 1208.098022 1209.015381 1209.374390 1210.014771 1211.032837 1211.070557 1212.041260 1212.622314 1212.992554 1213.821777 1214.027588 1214.564209 1215.214600 1215.321045 1215.775391 1216.254639 1216.546753 1216.665649 1217.024902 1217.350464 1217.659912 1217.740967 1217.968994 1218.289673 1218.629150 1218.934082 1218.989502 1219.368164 1219.759155 1220.155029 1220.157959 1220.548584 1220.933594 1221.306641 1221.443604 1221.665894 1222.011841 1222.345947 1222.671021 1222.802979 1222.989990 1223.306885 1223.585449 1223.854370 1224.121094 1224.214478 1224.393188 1224.679199 1224.913818 1225.141724 1225.402466 1225.625244 1225.634277 1225.857300 1226.130737 1226.336182 1226.588379 1226.833130 1226.970947 1227.064331 1227.340820 1227.547241 1227.789062 1228.024536 1228.195312 1228.222046 1228.444214 1228.629639 1228.800049 1228.993774 1229.136108 1229.261597 1229.291382 1229.473511 1229.604370 1229.772217 1229.950195 1230.106812 1230.154297 1230.295532 1230.471558 1230.648682 1230.842041 1230.875977 1231.007690 1231.194092 1231.350708 1231.444946 1231.514160 1231.667114 1231.802856 1231.892334 1231.937622 1232.068359 1232.179810 1232.295288 1232.312744 1232.414429 1232.515015 1232.623535 1232.716797 1232.732910 1232.828247 1232.930298 1233.032715 1233.098511 1233.121826 1233.215210 1233.311768 1233.406250 1233.449707 1233.492554 1233.580688 1233.670288 1233.761597 1233.762329 1233.854980 1233.950928 1234.030762 1234.042603 1234.132446 1234.224731 1234.253418 1234.318848 1234.413940 1234.432739 1234.508667 1234.574707 1234.601929 1234.687256 1234.689453 1234.770630 1234.779907 1234.848389 1234.862061 1234.921631 1234.941406 1234.989868 1235.016113 1235.052856 1235.079834 1235.111084 1235.143433 1235.166016 1235.205322 1235.209229 1235.240601 1235.255615 1235.270630 1235.289429 1235.302124 1235.315430 1235.323853 1235.331055 1235.335938 1235.340210 1235.349243 1162.428101 1163.423828 1164.551636 1165.759033 1167.012451 1168.294434 1169.598267 1170.921387 1172.265259 1173.633301 1175.029785 1176.454834 1177.902954 1179.366943 1180.843994 1182.341431 1183.873169 1185.453247 1187.088135 1188.774780 1190.505249 1192.274292 1194.083740 1195.940063 1197.846802 1199.797363 1201.774170 1203.753662 1205.711670 1207.623535 1209.463867 1211.211060 1212.856689 1214.410522 1215.894775 1217.331177 1218.733398 1220.109131 1221.467773 1222.821777 1224.179688 1225.537109 1226.873047 1228.156006 1229.358521 1230.469849 1231.498901 1232.461182 1233.354858 1233.410156 1233.509277 1233.608887 1233.709229 1233.810913 1233.932373 1234.115479 1234.148682 1234.347290 1234.613525 1234.790527 1234.895630 1235.165649 1235.234863 1235.383911 1235.465698 1235.501099 1159.247803 1159.424683 1159.774414 1160.329590 1161.106567 1162.093872 1163.249878 1164.512817 1165.820190 1167.128296 1168.421265 1169.707153 1171.005737 1172.337158 1173.715332 1175.147339 1176.634399 1178.170044 1179.741333 1181.331055 1182.923950 1184.512939 1186.103271 1187.711792 1189.361694 1191.075562 1192.868164 1194.739990 1196.674805 1198.637329 1200.578247 1202.450073 1204.231567 1205.943481 1207.638428 1209.362549 1211.116821 1212.849731 1214.493164 1216.012085 1217.429199 1218.806763 1220.204834 1221.647949 1223.120361 1224.587769 1226.020874 1227.408813 1228.755249 1230.064819 1231.331421 1232.531982 1233.627686 1234.568481 1234.692871 1234.780762 1234.865479 1234.946899 1235.025269 1235.144531 1235.302368 1235.344971 1235.598633 1235.788818 1235.848145 1236.015015 1236.016846 1240.888794 1240.889893 1240.896606 1240.918335 1240.948486 1240.946777 1240.954468 1240.968140 1240.960815 1171.970337 1172.250244 1172.630859 1173.289673 1174.064575 1175.087158 1176.280151 1177.564819 1178.873169 1180.156860 1181.389282 1182.564209 1183.690186 1184.784180 1185.863892 1186.943848 1188.031982 1189.129639 1190.234131 1191.340454 1192.444214 1193.542725 1194.635010 1195.721558 1196.802734 1197.878662 1198.950195 1200.019409 1201.091431 1202.175293 1203.282349 1204.424805 1205.611572 1206.844604 1208.115112 1209.403809 1210.682129 1211.917969 1213.081787 1214.151978 1215.118286 1215.982666 1216.756348 1217.456787 1218.102905 1218.713257 1219.302612 1219.882080 1220.458496 1221.033936 1221.605957 1222.167725 1222.708984 1223.218872 1223.688599 1224.115845 1224.507568 1224.880127 1225.257446 1225.665161 1226.125488 1226.650635 1227.241699 1227.887329 1228.567871 1229.258545 1229.934448 1230.575073 1231.167236 1231.708984 1232.211182 1232.697510 1233.202881 1233.767578 1234.428467 1235.208252 1236.106812 1237.096191 1238.124268 1239.125366 1240.034058 1240.799683 1240.895752 1240.929199 1240.987671 1241.066162 1241.158447 1241.258057 1241.360840 1241.393433 1241.464600 1241.569824 1241.678223 1241.791260 1241.811157 1241.908813 1242.025513 1242.068848 1242.118164 1242.191284 1242.195801 1242.225830 1206.199585 1206.353516 1206.612915 1206.958496 1207.373779 1207.847656 1208.376709 1208.964355 1209.618652 1210.348999 1211.161377 1212.055298 1213.021484 1214.041016 1215.087891 1216.131836 1217.142212 1218.092163 1218.961548 1219.738525 1220.420044 1221.010498 1221.520630 1221.965088 1222.360352 1222.722412 1223.065308 1223.399658 1223.732300 1224.066284 1224.401733 1224.737915 1225.073608 1225.409790 1225.749878 1226.099854 1226.468506 1226.865479 1227.300293 1227.781250 1228.313599 1228.899780 1229.539185 1230.228394 1230.961670 1231.731689 1232.529175 1233.343262 1234.161743 1234.971680 1235.760498 1236.517700 1237.236450 1237.914307 1238.553711 1239.160400 1239.741577 1240.302979 1240.846436 1240.992432 1241.073364 1241.205444 1241.367920 1241.380859 1241.583740 1241.794067 1241.857910 1241.993042 1242.167725 1242.312866 1242.321411 1242.432129 1242.534912 1242.633423 1242.714111 1242.714722 1242.796997 1242.891724 1242.998169 1243.006104 1243.107178 1243.183350 1243.202759 1243.263672 1243.264160 1241.779541 1241.959717 1242.121704 1242.262451 1242.301758 1242.385254 1242.498779 1242.612793 1242.683228 1242.734985 1242.907349 1242.986694 1243.092041 1243.201538 1243.223389 1243.319214 1243.324097 1243.359131 1229.088745 1229.925659 1230.802368 1231.704102 1232.620728 1233.539551 1234.439331 1235.291626 1236.069580 1236.761963 1237.383667 1237.975098 1238.586914 1239.257202 1239.992310 1240.762695 1241.515137 1242.192993 1242.751831 1243.166870 1243.237671 1243.217285 1243.331421 1243.431030 1243.458740 1243.549438 1243.551880 1214.019043 1215.039551 1216.078613 1217.102661 1218.094482 1219.089111 1220.065674 1221.005371 1221.894043 1222.724121 1223.493408 1224.205078 1224.866577 1225.489990 1226.090942 1226.685791 1227.289551 1227.911499 1228.552979 1229.205566 1229.853760 1230.479980 1231.072876 1231.630615 1232.160522 1232.672852 1233.176880 1233.678101 1234.181763 1234.693481 1235.218018 1235.753906 1236.289307 1236.806885 1237.293457 1237.750488 1238.189941 1238.650269 1239.150269 1239.698608 1240.291382 1240.912109 1241.533936 1242.124268 1242.649292 1243.078857 1243.219604 1243.238159 1243.266846 1243.293945 1243.307129 1243.320557 1243.335083 1243.353638 1243.380005 1243.391235 1243.402588 1243.418335 1243.494263 1243.574219 1243.584961 1243.629517 1160.587891 1160.656616 1160.719727 1160.798096 1160.864258 1160.951660 1161.015625 1161.099243 1161.169067 1161.244507 1161.322144 1161.388794 1161.474731 1161.595093 1161.752686 1161.948242 1162.294556 1162.805664 1163.479736 1164.303223 1165.255981 1166.312744 1167.445190 1168.623413 1169.819580 1171.013306 1172.197876 1173.383545 1174.593384 1175.852417 1177.175293 1178.560059 1179.992065 1181.456299 1182.948975 1184.482422 1186.079590 1187.760742 1189.531006 1191.374634 1193.260986 1195.157593 1197.040283 1198.895996 1200.717407 1202.498291 1204.233643 1205.920532 1207.556274 1209.132812 1210.637329 1212.062500 1213.419189 1214.737793 1216.050903 1217.371582 1218.683838 1219.955078 1221.161011 1222.301636 1223.393921 1224.450195 1225.461792 1226.402222 1227.247681 1227.997070 1228.677979 1229.336548 1230.018921 1230.754761 1231.550415 1232.391602 1233.242920 1233.251587 1233.398682 1233.588135 1233.810547 1234.065308 1234.101440 1234.351318 1234.666748 1234.918335 1235.008911 1235.375244 1235.690552 1235.762695 1236.168945 1236.421387 1236.591553 1237.027832 1237.133667 1237.474121 1237.872314 1237.924072 1238.368896 1238.695801 1238.797119 1239.198486 1239.568848 1239.649780 1239.914551 1240.255249 1240.619385 1240.733276 1241.034790 1241.516235 1241.879883 1242.055664 1242.619995 1242.971069 1243.159180 1243.620728 1243.883057 1243.966309 1244.184326 1244.293457 1244.338013 1244.360474 1244.373535 1244.392578 1244.433228 1244.472046 1244.523682 1244.547241 1244.593628 1244.677490 1244.772217 1244.876953 1244.973389 1244.994751 1245.076050 1245.190552 1245.320190 1245.353149 1245.437500 1245.547974 1245.674561 1245.778442 1245.784424 1245.875610 1245.986084 1246.059204 1246.132568 1246.227173 1246.267334 1246.343506 1246.354004 1246.406616 1246.458984 1246.549927 1246.595703 1246.657104 1246.747314 1246.788818 1246.838013 1246.907349 1246.994141 1247.024658 1247.271118 1247.619141 1247.653931 1247.941650 1247.952759 1161.469360 1161.534058 1161.608887 1161.682007 1161.781982 1161.911377 1162.072754 1162.341187 1162.767822 1163.365479 1164.135132 1165.065186 1166.132568 1167.303833 1168.538330 1169.795044 1171.040894 1172.259766 1173.457031 1174.655762 1175.886230 1177.171509 1178.516968 1179.911621 1181.338013 1182.786621 1184.265137 1185.796509 1187.408203 1189.116699 1190.916626 1192.778931 1194.662598 1196.529541 1198.357300 1200.141968 1201.892456 1203.620239 1205.329468 1207.011475 1208.644287 1210.200928 1211.663452 1213.038330 1214.357178 1215.661377 1216.976685 1218.297119 1219.589233 1220.814575 1221.953735 1223.015259 1224.023682 1224.996948 1225.931885 1226.808594 1227.610596 1228.344116 1229.042847 1229.755493 1230.524292 1231.365967 1232.264160 1233.177002 1234.057495 1234.875000 1235.626465 1236.335571 1237.045288 1237.812134 1238.693726 1239.723022 1240.877197 1242.065674 1243.157837 1244.040649 1244.674805 1245.117676 1245.497314 1245.945557 1246.519897 1246.959595 1246.986206 1247.033447 1247.102661 1247.158569 1247.341064 1247.695679 1247.706055 1247.973877 1248.000732 1161.752808 1161.832642 1161.899902 1161.978149 1162.047729 1162.119995 1162.194580 1162.258423 1162.324097 1162.387573 1162.446533 1162.496216 1162.540894 1162.581055 1162.617920 1162.654053 1162.692505 1162.728027 1162.767090 1162.814453 1162.870972 1162.926147 1162.985474 1163.050293 1163.118042 1163.186768 1163.255493 1163.310547 1163.364868 1163.421021 1163.482422 1163.551636 1163.605103 1163.670410 1163.749756 1163.837769 1163.911499 1163.999878 1164.121826 1164.329712 1164.628052 1165.014648 1165.552856 1166.193115 1166.873413 1167.538574 1168.154907 1168.714600 1169.229248 1169.720825 1170.211914 1170.721313 1171.265381 1171.859009 1172.515747 1173.246094 1174.054565 1174.939209 1175.892578 1176.905029 1177.968750 1179.082397 1180.252075 1181.489502 1182.804932 1184.200806 1185.667725 1187.186279 1188.732056 1190.282959 1191.824341 1193.353027 1194.875488 1196.401123 1197.936646 1199.484863 1201.050049 1202.645996 1204.295654 1206.021362 1207.828857 1209.696655 1211.578003 1213.415283 1215.159424 1216.785400 1218.295288 1219.709961 1221.054321 1222.343628 1223.579590 1224.755859 1225.864258 1226.897705 1227.847412 1228.699463 1229.440552 1230.067383 1230.596191 1231.062134 1231.481934 1231.866089 1232.223145 1232.603638 1233.030151 1233.500122 1234.001953 1234.522827 1235.056763 1235.616943 1236.243408 1236.999512 1237.946533 1239.104614 1240.422607 1241.777832 1243.017700 1244.028198 1244.796021 1245.428589 1246.100952 1246.946167 1247.121460 1247.161987 1247.233643 1247.274658 1247.327881 1247.423096 1247.465820 1247.550049 1247.632812 1247.704956 1247.817383 1247.875610 1247.957153 1247.993164 1248.055054 1248.157227 1248.240356 1248.322632 1248.432007 1248.490723 1248.603149 1248.665283 1248.749390 1248.849731 1248.903320 1248.981689 1249.000732 1249.066528 1249.130737 1249.234619 1249.268921 1249.343628 1249.415405 1249.465576 1249.563843 1249.603516 1249.689209 1249.759888 1249.820801 1249.838379 1249.937622 1250.013916 1250.133057 1250.275635 1250.346802 1250.417480 1250.533081 1250.553833 1231.505859 1231.959229 1232.435181 1232.930786 1233.437012 1233.947876 1234.467773 1235.015259 1235.628418 1236.361084 1237.267822 1238.375488 1239.655884 1241.016846 1242.324219 1243.449219 1244.329468 1245.012817 1245.651367 1246.423096 1247.409912 1248.520752 1249.537231 1249.963623 1250.119141 1250.248779 1250.344971 1250.550903 1250.567871 1164.059570 1164.297852 1164.629639 1165.082520 1165.651367 1166.286743 1166.940796 1167.578247 1168.181030 1168.746582 1169.282471 1169.801514 1170.320435 1170.859497 1171.442627 1172.092651 1172.826660 1173.650391 1174.557861 1175.534424 1176.562866 1177.632080 1178.743286 1179.909424 1181.148682 1182.473389 1183.882324 1185.358765 1186.877319 1188.412720 1189.946411 1191.470093 1192.985474 1194.500977 1196.026123 1197.565674 1199.119263 1200.685913 1202.271973 1203.893311 1205.569946 1207.314941 1209.122314 1210.963501 1212.793335 1214.563599 1216.237671 1217.800171 1219.256592 1220.623047 1221.914795 1223.137695 1224.290771 1225.371338 1226.376709 1227.303223 1228.142578 1228.886475 1229.535034 1230.104736 1230.626343 1231.133789 1231.649902 1232.179199 1232.712891 1233.240234 1233.758789 1234.280151 1234.832886 1235.462280 1236.223633 1237.165649 1238.305176 1239.605957 1240.974243 1242.279907 1243.399780 1244.272461 1244.943970 1245.566406 1246.325806 1247.317383 1248.456055 1249.512939 1249.821899 1249.988892 1250.255493 1250.272095 1250.530640 1250.577515 1203.280640 1204.384155 1205.510132 1206.666138 1207.847290 1208.974609 1210.108154 1211.197632 1212.219849 1213.203735 1214.133057 1214.995972 1215.788574 1216.514771 1217.185303 1217.813354 1218.411377 1218.989380 1219.554688 1220.112793 1220.669189 1221.229248 1221.797363 1222.374512 1222.955566 1223.528931 1224.078125 1224.586182 1225.042358 1225.446533 1225.812622 1226.165527 1226.517456 1226.878906 1227.259399 1227.655029 1228.071045 1228.512939 1228.963379 1229.457520 1229.986572 1230.539673 1231.105591 1231.675293 1232.243530 1232.809448 1233.376221 1233.949951 1234.538086 1235.146729 1235.779419 1236.434448 1237.104126 1237.774536 1238.426514 1239.038818 1239.590942 1240.067261 1240.460205 1240.771973 1241.014282 1241.207520 1241.377808 1241.554443 1241.754395 1241.985107 1242.261963 1242.568481 1242.922485 1243.279541 1243.445801 1243.485352 1243.527466 1243.556519 1243.590820 1243.627441 1243.663940 1243.670776 1243.685181 1243.704102 1243.722412 1243.742676 1243.768311 1243.802612 1243.918091 1244.032959 1244.152588 1244.400146 1244.512451 1244.736572 1244.973389 1245.045898 1245.337891 1245.489014 1245.585083 1245.837646 1246.003296 1246.040039 1246.271851 1246.451294 1246.466797 1246.668945 1246.847656 1246.849121 1247.055786 1247.144043 1247.233154 1247.368774 1247.426025 1247.556396 1247.593628 1247.741211 1247.765015 1247.916870 1247.946411 1248.068604 1248.178833 1248.207764 1248.351196 1248.447998 1248.489380 1248.638428 1248.755371 1248.788574 1248.950439 1249.077515 1249.119385 1249.290405 1249.414917 1249.475952 1249.645020 1249.743652 1249.839600 1249.995972 1250.053101 1250.191772 1250.331421 1250.349731 1250.523560 1250.618530 1250.650757 1250.836792 1250.885620 1250.960815 1251.137207 1251.150269 1251.268066 1251.410889 1251.427734 1251.573608 1251.664185 1251.705322 1251.871094 1251.905396 1251.965698 1252.082886 1252.128296 1252.209839 1252.276001 1252.325317 1252.356689 1252.448486 1252.489014 1252.502441 1252.553711 1252.612915 1252.617432 1252.676270 1252.694092 1252.698853 1252.724243 1252.734131 1252.740479 1243.546387 1243.949341 1244.579956 1245.365356 1246.197144 1246.970825 1247.617188 1248.113037 1248.523438 1248.875977 1249.187866 1249.476074 1249.752197 1250.020996 1250.279297 1250.519531 1250.732666 1250.911865 1251.089355 1251.282837 1251.495728 1251.728271 1251.977173 1252.237793 1252.505371 1252.629761 1252.774902 1252.920166 1253.037476 1253.222656 1253.277100 1253.458618 1253.468506 1253.580078 1253.581787 1259.275146 1259.274658 1259.287964 1259.285645 1259.298462 1259.297241 1259.304565 1259.324097 1259.328125 1259.341553 1259.360840 1259.359985 1164.102783 1164.196411 1164.283691 1164.383789 1164.482300 1164.557007 1164.647461 1164.720703 1164.786377 1164.861572 1164.907349 1164.978394 1165.015259 1165.082153 1165.122437 1165.188477 1165.239990 1165.308228 1165.370605 1165.442261 1165.507202 1165.582397 1165.639648 1165.720337 1165.762695 1165.829712 1165.881470 1165.934448 1166.004150 1166.056763 1166.124146 1166.204590 1166.279175 1166.359741 1166.445190 1166.531128 1166.615356 1166.692627 1166.765015 1166.837524 1166.914307 1166.977417 1167.047607 1167.121094 1167.187988 1167.270020 1167.340820 1167.424194 1167.509521 1167.593872 1167.686035 1167.778076 1167.864868 1167.945557 1168.022705 1168.095337 1168.169312 1168.251343 1168.332642 1168.418091 1168.505371 1168.593628 1168.677734 1168.763428 1168.840210 1168.920288 1168.987549 1169.057861 1169.124878 1169.184814 1169.252563 1169.322754 1169.383789 1169.455200 1169.539795 1169.602051 1169.668823 1169.753906 1169.808838 1169.942139 1170.152832 1170.504395 1170.952271 1171.462036 1172.019287 1172.619629 1173.257935 1173.926758 1174.620239 1175.336670 1176.074707 1176.825562 1177.570190 1178.285400 1178.952393 1179.564575 1180.130859 1180.673218 1181.219238 1181.793457 1182.410767 1183.075195 1183.782349 1184.522095 1185.282227 1186.051514 1186.824219 1187.603638 1188.404419 1189.250000 1190.167236 1191.178101 1192.290405 1193.493896 1194.761597 1196.061035 1197.367798 1198.676392 1200.000000 1201.358887 1202.765991 1204.218994 1205.703491 1207.204224 1208.715454 1210.245117 1211.810181 1213.425659 1215.093384 1216.799316 12