# vtk DataFile Version 2.0
tm graph
ASCII
DATASET UNSTRUCTURED_GRID
POINTS 12313 float
558.50 0.50 1212.79
556.50 0.50 1212.65
554.50 0.50 1212.40
552.50 0.50 1212.07
550.50 0.50 1211.65
548.50 0.50 1211.16
546.50 0.50 1210.62
544.50 0.50 1210.02
542.50 0.50 1209.37
540.50 0.50 1208.68
538.50 0.50 1207.95
536.50 0.50 1207.19
534.50 0.50 1206.41
532.50 0.50 1205.62
530.50 0.50 1204.83
528.50 0.50 1204.04
526.50 0.50 1203.25
524.50 0.50 1202.45
522.50 0.50 1201.66
520.50 0.50 1200.84
518.50 0.50 1200.02
516.50 0.50 1199.18
514.50 0.50 1198.33
512.50 0.50 1197.48
510.50 0.50 1196.64
508.50 0.50 1195.82
506.50 0.50 1195.02
504.50 0.50 1194.26
502.50 0.50 1193.52
500.50 0.50 1192.81
498.50 0.50 1192.12
496.50 0.50 1191.44
494.50 0.50 1190.78
492.50 0.50 1190.11
490.50 0.50 1189.43
488.50 0.50 1188.74
486.50 0.50 1188.02
484.50 0.50 1187.28
482.50 0.50 1186.52
480.50 0.50 1185.74
478.50 0.50 1184.95
476.50 0.50 1184.15
474.50 0.50 1183.35
472.50 0.50 1182.56
470.50 0.50 1181.78
468.50 0.50 1181.01
466.50 0.50 1180.26
464.50 0.50 1179.53
462.50 0.50 1178.81
460.50 0.50 1178.10
458.50 0.50 1177.41
456.50 0.50 1176.72
454.50 0.50 1176.03
452.50 0.50 1175.34
450.50 0.50 1174.65
448.50 0.50 1173.96
446.50 0.50 1173.26
444.50 0.50 1172.56
442.50 0.50 1171.86
440.50 0.50 1171.17
438.50 0.50 1170.50
436.50 0.50 1169.84
434.50 0.50 1169.21
432.50 0.50 1168.60
430.50 0.50 1168.02
428.50 0.50 1167.45
426.50 0.50 1166.90
424.50 0.50 1166.36
422.50 0.50 1165.82
420.50 0.50 1165.28
418.50 0.50 1164.74
416.50 0.50 1164.20
414.50 0.50 1163.66
412.50 0.50 1163.13
410.50 0.50 1162.61
408.50 0.50 1162.10
406.50 0.50 1161.63
404.50 0.50 1161.19
402.50 0.50 1160.79
400.50 0.50 1160.44
398.50 0.50 1160.13
396.50 0.50 1159.88
394.50 0.50 1159.68
392.50 0.50 1159.53
390.50 0.50 1159.42
388.50 0.50 1159.35
386.50 0.50 1159.31
386.50 2.50 1159.28
384.50 2.50 1159.24
382.50 2.50 1159.22
380.50 2.50 1159.21
378.50 2.50 1159.21
378.50 4.50 1159.21
376.50 4.50 1159.20
374.50 4.50 1159.20
560.50 0.50 1212.82
562.50 0.50 1212.73
564.50 0.50 1212.52
566.50 0.50 1212.19
568.50 0.50 1211.76
570.50 0.50 1211.24
572.50 0.50 1210.64
574.50 0.50 1209.99
576.50 0.50 1209.31
578.50 0.50 1208.63
580.50 0.50 1207.98
582.50 0.50 1207.39
584.50 0.50 1206.90
586.50 0.50 1206.52
588.50 0.50 1206.27
590.50 0.50 1206.17
490.50 134.50 1235.35
490.50 136.50 1235.34
488.50 136.50 1235.32
486.50 136.50 1235.29
484.50 136.50 1235.26
484.50 138.50 1235.21
482.50 138.50 1235.14
480.50 138.50 1235.08
478.50 138.50 1235.02
478.50 140.50 1234.94
476.50 140.50 1234.86
474.50 140.50 1234.78
472.50 140.50 1234.69
470.50 140.50 1234.57
468.50 140.50 1234.43
466.50 140.50 1234.25
464.50 140.50 1234.03
462.50 140.50 1233.76
460.50 140.50 1233.45
458.50 140.50 1233.10
456.50 140.50 1232.72
454.50 140.50 1232.31
452.50 140.50 1231.89
450.50 138.50 1231.44
448.50 136.50 1230.88
446.50 134.50 1230.15
444.50 132.50 1229.26
442.50 130.50 1228.20
440.50 128.50 1226.97
438.50 126.50 1225.63
436.50 124.50 1224.21
434.50 122.50 1222.80
432.50 120.50 1221.44
430.50 118.50 1220.16
428.50 116.50 1218.93
426.50 114.50 1217.74
424.50 112.50 1216.55
422.50 110.50 1215.32
420.50 108.50 1214.03
418.50 106.50 1212.62
416.50 104.50 1211.07
414.50 102.50 1209.37
412.50 100.50 1207.58
410.50 98.50 1205.75
408.50 96.50 1203.92
406.50 94.50 1202.09
404.50 92.50 1200.25
402.50 90.50 1198.39
400.50 88.50 1196.53
398.50 86.50 1194.68
396.50 84.50 1192.87
394.50 82.50 1191.08
392.50 80.50 1189.32
390.50 78.50 1187.59
388.50 76.50 1185.91
386.50 74.50 1184.30
384.50 72.50 1182.76
382.50 70.50 1181.28
380.50 68.50 1179.83
378.50 66.50 1178.40
376.50 64.50 1176.94
374.50 62.50 1175.43
372.50 60.50 1173.87
370.50 58.50 1172.28
368.50 56.50 1170.70
366.50 54.50 1169.18
364.50 52.50 1167.79
362.50 50.50 1166.55
360.50 48.50 1165.47
358.50 46.50 1164.53
356.50 44.50 1163.69
354.50 42.50 1162.93
352.50 40.50 1162.26
350.50 38.50 1161.69
348.50 36.50 1161.24
346.50 34.50 1160.93
346.50 32.50 1160.75
346.50 30.50 1160.62
346.50 28.50 1160.53
346.50 26.50 1160.47
348.50 26.50 1160.42
348.50 24.50 1160.37
350.50 24.50 1160.33
350.50 22.50 1160.28
352.50 22.50 1160.23
352.50 20.50 1160.18
354.50 20.50 1160.13
354.50 18.50 1160.06
356.50 18.50 1160.00
356.50 16.50 1159.93
356.50 14.50 1159.86
358.50 14.50 1159.78
358.50 12.50 1159.71
360.50 12.50 1159.63
360.50 10.50 1159.55
360.50 8.50 1159.49
362.50 8.50 1159.42
362.50 6.50 1159.37
364.50 6.50 1159.32
366.50 6.50 1159.28
366.50 4.50 1159.25
368.50 4.50 1159.23
370.50 4.50 1159.21
372.50 4.50 1159.20
492.50 134.50 1235.34
494.50 134.50 1235.33
496.50 134.50 1235.32
496.50 132.50 1235.30
498.50 132.50 1235.27
500.50 132.50 1235.24
502.50 132.50 1235.21
502.50 130.50 1235.17
504.50 130.50 1235.11
506.50 130.50 1235.05
508.50 130.50 1234.99
510.50 130.50 1234.92
512.50 130.50 1234.85
514.50 130.50 1234.77
516.50 130.50 1234.69
516.50 128.50 1234.60
518.50 128.50 1234.51
520.50 128.50 1234.41
522.50 128.50 1234.32
524.50 128.50 1234.22
526.50 128.50 1234.13
528.50 128.50 1234.04
528.50 126.50 1233.95
530.50 126.50 1233.85
532.50 126.50 1233.76
534.50 126.50 1233.67
536.50 126.50 1233.58
538.50 126.50 1233.49
540.50 126.50 1233.41
540.50 124.50 1233.31
542.50 124.50 1233.22
544.50 124.50 1233.12
546.50 124.50 1233.03
546.50 122.50 1232.93
548.50 122.50 1232.83
550.50 122.50 1232.73
550.50 120.50 1232.62
552.50 120.50 1232.52
554.50 120.50 1232.41
554.50 118.50 1232.30
556.50 118.50 1232.18
558.50 118.50 1232.07
558.50 116.50 1231.94
560.50 116.50 1231.80
562.50 116.50 1231.67
562.50 114.50 1231.51
564.50 114.50 1231.35
564.50 112.50 1231.19
566.50 112.50 1231.01
566.50 110.50 1230.84
568.50 110.50 1230.65
568.50 108.50 1230.47
570.50 108.50 1230.30
570.50 106.50 1230.11
570.50 104.50 1229.95
572.50 104.50 1229.77
572.50 102.50 1229.60
572.50 100.50 1229.47
574.50 100.50 1229.29
574.50 98.50 1229.14
576.50 98.50 1228.99
576.50 96.50 1228.80
576.50 94.50 1228.63
578.50 94.50 1228.44
578.50 92.50 1228.22
578.50 90.50 1228.02
580.50 90.50 1227.79
580.50 88.50 1227.55
582.50 88.50 1227.34
582.50 86.50 1227.06
582.50 84.50 1226.83
584.50 84.50 1226.59
584.50 82.50 1226.34
586.50 82.50 1226.13
586.50 80.50 1225.86
586.50 78.50 1225.63
588.50 78.50 1225.40
588.50 76.50 1225.14
588.50 74.50 1224.91
590.50 74.50 1224.68
590.50 72.50 1224.39
590.50 70.50 1224.12
590.50 68.50 1223.85
590.50 66.50 1223.59
592.50 66.50 1223.31
592.50 64.50 1222.99
592.50 62.50 1222.67
592.50 60.50 1222.35
592.50 58.50 1222.01
592.50 56.50 1221.67
592.50 54.50 1221.31
592.50 52.50 1220.93
592.50 50.50 1220.55
592.50 48.50 1220.16
592.50 46.50 1219.76
592.50 44.50 1219.37
592.50 42.50 1218.99
592.50 40.50 1218.63
592.50 38.50 1218.29
592.50 36.50 1217.97
592.50 34.50 1217.66
592.50 32.50 1217.35
592.50 30.50 1217.02
592.50 28.50 1216.67
592.50 26.50 1216.25
592.50 24.50 1215.78
592.50 22.50 1215.21
592.50 20.50 1214.56
592.50 18.50 1213.82
592.50 16.50 1212.99
590.50 14.50 1212.04
590.50 12.50 1211.03
590.50 10.50 1210.01
588.50 8.50 1209.02
588.50 6.50 1208.10
588.50 4.50 1207.31
588.50 2.50 1206.69
512.50 106.50 1235.47
510.50 104.50 1235.23
508.50 102.50 1234.79
506.50 100.50 1234.15
504.50 98.50 1233.35
502.50 96.50 1232.46
500.50 94.50 1231.50
498.50 92.50 1230.47
496.50 90.50 1229.36
494.50 88.50 1228.16
492.50 86.50 1226.87
490.50 84.50 1225.54
488.50 82.50 1224.18
486.50 80.50 1222.82
484.50 78.50 1221.47
482.50 76.50 1220.11
480.50 74.50 1218.73
478.50 72.50 1217.33
476.50 70.50 1215.89
474.50 68.50 1214.41
472.50 66.50 1212.86
470.50 64.50 1211.21
468.50 62.50 1209.46
466.50 60.50 1207.62
464.50 58.50 1205.71
462.50 56.50 1203.75
460.50 54.50 1201.77
458.50 52.50 1199.80
456.50 50.50 1197.85
454.50 48.50 1195.94
452.50 46.50 1194.08
450.50 44.50 1192.27
448.50 42.50 1190.51
446.50 40.50 1188.77
444.50 38.50 1187.09
442.50 36.50 1185.45
440.50 34.50 1183.87
438.50 32.50 1182.34
436.50 30.50 1180.84
434.50 28.50 1179.37
432.50 26.50 1177.90
430.50 24.50 1176.45
428.50 22.50 1175.03
426.50 20.50 1173.63
424.50 18.50 1172.27
422.50 16.50 1170.92
420.50 14.50 1169.60
418.50 12.50 1168.29
416.50 10.50 1167.01
414.50 8.50 1165.76
412.50 6.50 1164.55
410.50 4.50 1163.42
408.50 2.50 1162.43
514.50 108.50 1235.50
516.50 110.50 1235.38
518.50 112.50 1235.17
520.50 114.50 1234.90
522.50 116.50 1234.61
524.50 118.50 1234.35
526.50 120.50 1234.12
528.50 122.50 1233.93
530.50 124.50 1233.81
532.50 124.50 1233.71
534.50 124.50 1233.61
536.50 124.50 1233.51
538.50 124.50 1233.41
494.50 116.50 1236.02
492.50 114.50 1235.79
490.50 112.50 1235.30
488.50 110.50 1234.57
486.50 108.50 1233.63
484.50 106.50 1232.53
482.50 104.50 1231.33
480.50 102.50 1230.06
478.50 100.50 1228.76
476.50 98.50 1227.41
474.50 96.50 1226.02
472.50 94.50 1224.59
470.50 92.50 1223.12
468.50 90.50 1221.65
466.50 88.50 1220.20
464.50 86.50 1218.81
462.50 84.50 1217.43
460.50 82.50 1216.01
458.50 80.50 1214.49
456.50 78.50 1212.85
454.50 76.50 1211.12
452.50 74.50 1209.36
450.50 72.50 1207.64
448.50 70.50 1205.94
446.50 68.50 1204.23
444.50 66.50 1202.45
442.50 64.50 1200.58
440.50 62.50 1198.64
438.50 60.50 1196.67
436.50 58.50 1194.74
434.50 56.50 1192.87
432.50 54.50 1191.08
430.50 52.50 1189.36
428.50 50.50 1187.71
426.50 48.50 1186.10
424.50 46.50 1184.51
422.50 44.50 1182.92
420.50 42.50 1181.33
418.50 40.50 1179.74
416.50 38.50 1178.17
414.50 36.50 1176.63
412.50 34.50 1175.15
410.50 32.50 1173.72
408.50 30.50 1172.34
406.50 28.50 1171.01
404.50 26.50 1169.71
402.50 24.50 1168.42
400.50 22.50 1167.13
398.50 20.50 1165.82
396.50 18.50 1164.51
394.50 16.50 1163.25
392.50 14.50 1162.09
390.50 12.50 1161.11
388.50 10.50 1160.33
386.50 8.50 1159.77
384.50 6.50 1159.42
382.50 4.50 1159.25
496.50 118.50 1236.02
498.50 120.50 1235.85
500.50 122.50 1235.60
502.50 124.50 1235.34
504.50 126.50 1235.14
506.50 128.50 1235.03
508.50 128.50 1234.95
510.50 128.50 1234.87
512.50 128.50 1234.78
514.50 128.50 1234.69
764.50 6.50 1240.95
766.50 6.50 1240.95
766.50 4.50 1240.92
768.50 4.50 1240.90
770.50 4.50 1240.89
770.50 2.50 1240.89
760.50 8.50 1240.96
[...]
CELL_DATA 330
FIELD FieldData 1
pid 1 330 int
0 1 2 3 4 5 6 7 8 9 10 11 12 13 14 15 16 17 18 19 20 21 22 23 24 25 26 27 28 29 30 31 32 33 34 35 36 37 38 39 40 41 42 43 44 45 46 47 48 49 50 51 52 53 54 55 56 57 58 59 60 61 62 63 64 65 66 67 68 69 70 71 72 73 74 75 76 77 78 79 80 81 82 83 84 85 86 87 88 89 90 91 92 93 94 95 96 97 98 99 100 101 102 103 104 105 106 107 108 109 110 111 112 113 114 115 116 117 118 119 120 121 122 123 124 125 126 127 128 129 130 131 132 133 134 135 136 137 138 139 140 141 142 143 144 145 146 147 148 149 150 151 152 153 154 155 156 157 158 159 160 161 162 163 164 165 166 167 168 169 170 171 172 173 174 175 176 177 178 179 180 181 182 183 184 185 186 187 188 189 190 191 192 193 194 195 196 197 198 199 200 201 202 203 204 205 206 207 208 209 210 211 212 213 214 215 216 217 218 219 220 221 222 223 224 225 226 227 228 229 230 231 232 233 234 235 236 237 238 239 240 241 242 243 244 245 246 247 248 249 250 251 252 253 254 255 256 257 258 259 260 261 262 263 264 265 266 267 268 269 270 271 272 273 274 275 276 277 278 279 280 281 282 283 284 285 286 287 288 289 290 291 292 293 294 295 296 297 298 299 300 301 302 303 304 305 306 307 308 309 310 311 312 313 314 315 316 317 318 319 320 321 322 323 324 325 326 327 328 329 
