# vtk DataFile Version 2.0
tm graph
ASCII
DATASET UNSTRUCTURED_GRID
POINTS 11586 float
558.50 0.50 1212.79
556.50 0.50 1212.65
554.50 0.50 1212.40
552.50 0.50 1212.07
550.50 0.50 1211.65
548.50 0.50 1211.16
546.50 0.50 1210.62
544.50 0.50 1210.02
542.50 0.50 1209.37
540.50 0.50 1208.68
538.50 0.50 1207.95
536.50 0.50 1207.19
534.50 0.50 1206.41
532.50 0.50 1205.62
530.50 0.50 1204.83
528.50 0.50 1204.04
526.50 0.50 1203.25
524.50 0.50 1202.45
522.50 0.50 1201.66
520.50 0.50 1200.84
518.50 0.50 1200.02
516.50 0.50 1199.18
514.50 0.50 1198.33
512.50 0.50 1197.48
510.50 0.50 1196.64
508.50 0.50 1195.82
506.50 0.50 1195.02
504.50 0.50 1194.26
502.50 0.50 1193.52
500.50 0.50 1192.81
498.50 0.50 1192.12
496.50 0.50 1191.44
494.50 0.50 1190.78
492.50 0.50 1190.11
490.50 0.50 1189.43
488.50 0.50 1188.74
486.50 0.50 1188.02
484.50 0.50 1187.28
482.50 0.50 1186.52
480.50 0.50 1185.74
478.50 0.50 1184.95
476.50 0.50 1184.15
474.50 0.50 1183.35
472.50 0.50 1182.56
470.50 0.50 1181.78
468.50 0.50 1181.01
466.50 0.50 1180.26
464.50 0.50 1179.53
462.50 0.50 1178.81
460.50 0.50 1178.10
458.50 0.50 1177.41
456.50 0.50 1176.72
454.50 0.50 1176.03
452.50 0.50 1175.34
450.50 0.50 1174.65
448.50 0.50 1173.96
446.50 0.50 1173.26
444.50 0.50 1172.56
442.50 0.50 1171.86
440.50 0.50 1171.17
438.50 0.50 1170.50
436.50 0.50 1169.84
434.50 0.50 1169.21
432.50 0.50 1168.60
430.50 0.50 1168.02
428.50 0.50 1167.45
426.50 0.50 1166.90
424.50 0.50 1166.36
422.50 0.50 1165.82
420.50 0.50 1165.28
418.50 0.50 1164.74
416.50 0.50 1164.20
414.50 0.50 1163.66
412.50 0.50 1163.13
410.50 0.50 1162.61
408.50 0.50 1162.10
406.50 0.50 1161.63
404.50 0.50 1161.19
402.50 0.50 1160.79
400.50 0.50 1160.44
398.50 0.50 1160.13
396.50 0.50 1159.88
394.50 0.50 1159.68
392.50 0.50 1159.53
390.50 0.50 1159.42
388.50 2.50 1159.34
386.50 2.50 1159.28
384.50 2.50 1159.24
382.50 2.50 1159.22
380.50 2.50 1159.21
378.50 4.50 1159.21
376.50 4.50 1159.20
374.50 4.50 1159.20
560.50 0.50 1212.82
562.50 0.50 1212.73
564.50 0.50 1212.52
566.50 0.50 1212.19
568.50 0.50 1211.76
570.50 0.50 1211.24
572.50 0.50 1210.64
574.50 0.50 1209.99
576.50 0.50 1209.31
578.50 0.50 1208.63
580.50 0.50 1207.98
582.50 0.50 1207.39
584.50 0.50 1206.90
586.50 0.50 1206.52
588.50 0.50 1206.27
590.50 0.50 1206.17
490.50 136.50 1235.34
488.50 136.50 1235.32
486.50 138.50 1235.26
484.50 140.50 1235.19
482.50 140.50 1235.11
480.50 142.50 1235.01
478.50 142.50 1234.91
476.50 142.50 1234.81
474.50 144.50 1234.71
472.50 144.50 1234.59
470.50 144.50 1234.44
468.50 144.50 1234.27
466.50 144.50 1234.07
464.50 146.50 1233.84
462.50 146.50 1233.56
460.50 146.50 1233.26
458.50 146.50 1232.94
456.50 146.50 1232.61
454.50 146.50 1232.27
452.50 146.50 1231.93
450.50 146.50 1231.58
448.50 146.50 1231.21
446.50 146.50 1230.82
444.50 146.50 1230.42
442.50 146.50 1230.01
440.50 146.50 1229.59
438.50 146.50 1229.17
436.50 146.50 1228.77
434.50 146.50 1228.38
432.50 146.50 1228.00
430.50 146.50 1227.61
428.50 146.50 1227.22
426.50 146.50 1226.81
424.50 146.50 1226.38
422.50 146.50 1225.92
420.50 146.50 1225.46
418.50 146.50 1224.98
416.50 146.50 1224.50
414.50 146.50 1224.02
412.50 146.50 1223.54
412.50 144.50 1223.05
410.50 144.50 1222.55
410.50 142.50 1222.04
410.50 140.50 1221.51
410.50 138.50 1220.95
410.50 136.50 1220.35
410.50 134.50 1219.71
410.50 132.50 1219.02
410.50 130.50 1218.30
410.50 128.50 1217.55
410.50 126.50 1216.80
410.50 124.50 1216.05
410.50 122.50 1215.32
410.50 120.50 1214.60
410.50 118.50 1213.89
410.50 116.50 1213.20
410.50 114.50 1212.50
410.50 112.50 1211.78
410.50 110.50 1211.04
410.50 108.50 1210.27
410.50 106.50 1209.45
410.50 104.50 1208.59
410.50 102.50 1207.68
410.50 100.50 1206.73
410.50 98.50 1205.75
410.50 96.50 1204.75
410.50 94.50 1203.74
410.50 92.50 1202.73
410.50 90.50 1201.73
410.50 88.50 1200.73
410.50 86.50 1199.73
410.50 84.50 1198.72
410.50 82.50 1197.69
410.50 80.50 1196.64
410.50 78.50 1195.57
410.50 76.50 1194.49
410.50 74.50 1193.41
410.50 72.50 1192.34
410.50 70.50 1191.30
410.50 68.50 1190.28
410.50 66.50 1189.29
410.50 64.50 1188.33
410.50 62.50 1187.39
410.50 60.50 1186.47
410.50 58.50 1185.55
410.50 56.50 1184.63
410.50 54.50 1183.72
410.50 52.50 1182.80
410.50 50.50 1181.88
410.50 48.50 1180.96
410.50 46.50 1180.03
410.50 44.50 1179.10
410.50 42.50 1178.17
410.50 40.50 1177.25
410.50 38.50 1176.34
410.50 36.50 1175.45
410.50 34.50 1174.57
410.50 32.50 1173.72
410.50 30.50 1172.88
410.50 28.50 1172.07
410.50 26.50 1171.29
410.50 24.50 1170.53
410.50 22.50 1169.78
410.50 20.50 1169.04
410.50 18.50 1168.31
410.50 16.50 1167.57
410.50 14.50 1166.83
410.50 12.50 1166.09
410.50 10.50 1165.36
410.50 8.50 1164.66
410.50 6.50 1164.01
410.50 4.50 1163.42
408.50 4.50 1162.90
406.50 4.50 1162.39
404.50 4.50 1161.90
402.50 4.50 1161.44
400.50 4.50 1161.01
398.50 4.50 1160.63
396.50 4.50 1160.29
394.50 4.50 1160.01
394.50 2.50 1159.77
392.50 2.50 1159.58
390.50 2.50 1159.44
492.50 134.50 1235.34
494.50 134.50 1235.33
496.50 132.50 1235.30
498.50 132.50 1235.27
500.50 130.50 1235.22
502.50 130.50 1235.17
504.50 128.50 1235.10
506.50 128.50 1235.03
508.50 128.50 1234.95
510.50 126.50 1234.86
512.50 126.50 1234.76
514.50 126.50 1234.66
516.50 126.50 1234.56
518.50 124.50 1234.46
520.50 124.50 1234.35
522.50 124.50 1234.24
524.50 124.50 1234.13
526.50 124.50 1234.02
528.50 124.50 1233.91
530.50 124.50 1233.81
532.50 124.50 1233.71
534.50 122.50 1233.60
536.50 122.50 1233.49
538.50 122.50 1233.38
540.50 122.50 1233.26
542.50 120.50 1233.13
544.50 120.50 1233.00
546.50 118.50 1232.85
548.50 118.50 1232.70
550.50 116.50 1232.53
552.50 116.50 1232.37
554.50 114.50 1232.19
556.50 114.50 1232.01
558.50 112.50 1231.81
560.50 110.50 1231.57
562.50 108.50 1231.28
564.50 106.50 1230.95
566.50 104.50 1230.56
568.50 102.50 1230.16
570.50 100.50 1229.76
572.50 98.50 1229.38
574.50 96.50 1229.01
576.50 94.50 1228.63
578.50 92.50 1228.22
580.50 90.50 1227.79
582.50 88.50 1227.34
584.50 86.50 1226.89
586.50 84.50 1226.45
588.50 82.50 1226.05
590.50 80.50 1225.70
590.50 78.50 1225.32
590.50 76.50 1224.99
592.50 74.50 1224.64
592.50 72.50 1224.29
592.50 70.50 1223.95
592.50 68.50 1223.63
592.50 66.50 1223.31
594.50 64.50 1222.96
594.50 62.50 1222.62
594.50 60.50 1222.29
594.50 58.50 1221.95
594.50 56.50 1221.60
594.50 54.50 1221.25
594.50 52.50 1220.88
594.50 50.50 1220.50
594.50 48.50 1220.12
594.50 46.50 1219.73
594.50 44.50 1219.33
594.50 42.50 1218.95
594.50 40.50 1218.58
594.50 38.50 1218.22
594.50 36.50 1217.88
594.50 34.50 1217.55
594.50 32.50 1217.22
594.50 30.50 1216.88
594.50 28.50 1216.51
594.50 26.50 1216.11
594.50 24.50 1215.66
594.50 22.50 1215.14
594.50 20.50 1214.55
594.50 18.50 1213.87
594.50 16.50 1213.10
594.50 14.50 1212.26
594.50 12.50 1211.35
594.50 10.50 1210.40
594.50 8.50 1209.43
594.50 6.50 1208.50
594.50 4.50 1207.64
594.50 2.50 1206.91
594.50 0.50 1206.35
592.50 0.50 1206.20
514.50 106.50 1235.51
514.50 104.50 1235.45
514.50 102.50 1235.32
514.50 100.50 1235.10
514.50 98.50 1234.81
514.50 96.50 1234.45
514.50 94.50 1234.03
514.50 92.50 1233.57
514.50 90.50 1233.07
514.50 88.50 1232.55
514.50 86.50 1232.00
514.50 84.50 1231.43
514.50 82.50 1230.84
514.50 80.50 1230.22
514.50 78.50 1229.59
514.50 76.50 1228.95
514.50 74.50 1228.32
514.50 72.50 1227.69
514.50 70.50 1227.08
514.50 68.50 1226.48
514.50 66.50 1225.87
514.50 64.50 1225.25
514.50 62.50 1224.61
514.50 60.50 1223.93
514.50 58.50 1223.22
514.50 56.50 1222.48
514.50 54.50 1221.74
514.50 52.50 1221.00
514.50 50.50 1220.28
514.50 48.50 1219.58
514.50 46.50 1218.89
514.50 44.50 1218.20
514.50 42.50 1217.48
514.50 40.50 1216.71
514.50 38.50 1215.87
514.50 36.50 1214.95
514.50 34.50 1213.96
514.50 32.50 1212.90
514.50 30.50 1211.82
514.50 28.50 1210.73
514.50 26.50 1209.66
514.50 24.50 1208.63
514.50 22.50 1207.62
514.50 20.50 1206.65
514.50 18.50 1205.69
514.50 16.50 1204.73
514.50 14.50 1203.76
514.50 12.50 1202.79
514.50 10.50 1201.82
514.50 8.50 1200.88
512.50 8.50 1199.99
510.50 8.50 1199.11
508.50 8.50 1198.24
506.50 8.50 1197.40
506.50 6.50 1196.58
504.50 6.50 1195.78
502.50 6.50 1195.00
500.50 6.50 1194.25
498.50 6.50 1193.52
496.50 6.50 1192.81
494.50 6.50 1192.13
492.50 6.50 1191.45
490.50 6.50 1190.79
488.50 6.50 1190.12
486.50 6.50 1189.44
484.50 6.50 1188.75
482.50 6.50 1188.04
480.50 6.50 1187.31
478.50 6.50 1186.57
476.50 6.50 1185.82
474.50 6.50 1185.05
472.50 6.50 1184.29
470.50 6.50 1183.53
468.50 6.50 1182.77
466.50 6.50 1182.02
464.50 6.50 1181.28
462.50 6.50 1180.55
460.50 6.50 1179.82
458.50 6.50 1179.09
456.50 6.50 1178.36
454.50 6.50 1177.63
452.50 6.50 1176.89
450.50 6.50 1176.16
448.50 6.50 1175.41
446.50 6.50 1174.67
444.50 6.50 1173.93
442.50 6.50 1173.20
440.50 6.50 1172.49
438.50 6.50 1171.81
436.50 6.50 1171.15
434.50 6.50 1170.52
432.50 6.50 1169.93
432.50 4.50 1169.35
430.50 4.50 1168.78
428.50 4.50 1168.23
426.50 4.50 1167.70
424.50 4.50 1167.17
422.50 4.50 1166.65
420.50 4.50 1166.12
418.50 4.50 1165.59
416.50 4.50 1165.05
414.50 4.50 1164.50
412.50 4.50 1163.96
514.50 108.50 1235.50
514.50 110.50 1235.44
514.50 112.50 1235.34
514.50 114.50 1235.21
514.50 116.50 1235.08
514.50 118.50 1234.95
516.50 118.50 1234.82
518.50 118.50 1234.70
520.50 118.50 1234.58
522.50 118.50 1234.46
522.50 120.50 1234.35
524.50 120.50 1234.23
526.50 120.50 1234.12
528.50 120.50 1234.00
530.50 120.50 1233.89
532.50 120.50 1233.77
534.50 120.50 1233.65
536.50 120.50 1233.53
538.50 120.50 1233.40
540.50 120.50 1233.27
802.50 4.50 1242.23
800.50 4.50 1242.19
798.50 4.50 1242.12
796.50 4.50 1242.03
794.50 4.50 1241.93
792.50 4.50 1241.82
790.50 4.50 1241.72
788.50 4.50 1241.62
786.50 4.50 1241.51
784.50 4.50 1241.40
782.50 4.50 1241.29
780.50 4.50 1241.19
778.50 4.50 1241.09
776.50 4.50 1241.00
774.50 4.50 1240.94
772.50 4.50 1240.90
770.50 4.50 1240.89
770.50 2.50 1240.89
804.50 4.50 1242.20
806.50 4.50 1242.07
808.50 2.50 1241.78
810.50 0.50 1241.27
812.50 0.50 1240.57
814.50 0.50 1239.70
816.50 0.50 1238.71
818.50 0.50 1237.65
820.50 0.50 1236.60
822.50 0.50 1235.60
824.50 0.50 1234.70
826.50 0.50 1233.93
[...]
CELL_DATA 298
FIELD FieldData 1
pid 1 298 int
0 1 2 3 4 5 6 7 8 9 10 11 12 13 14 15 16 17 18 19 20 21 22 23 24 25 26 27 28 29 30 31 32 33 34 35 36 37 38 39 40 41 42 43 44 45 46 47 48 49 50 51 52 53 54 55 56 57 58 59 60 61 62 63 64 65 66 67 68 69 70 71 72 73 74 75 76 77 78 79 80 81 82 83 84 85 86 87 88 89 90 91 92 93 94 95 96 97 98 99 100 101 102 103 104 105 106 107 108 109 110 111 112 113 114 115 116 117 118 119 120 121 122 123 124 125 126 127 128 129 130 131 132 133 134 135 136 137 138 139 140 141 142 143 144 145 146 147 148 149 150 151 152 153 154 155 156 157 158 159 160 161 162 163 164 165 166 167 168 169 170 171 172 173 174 175 176 177 178 179 180 181 182 183 184 185 186 187 188 189 190 191 192 193 194 195 196 197 198 199 200 201 202 203 204 205 206 207 208 209 210 211 212 213 214 215 216 217 218 219 220 221 222 223 224 225 226 227 228 229 230 231 232 233 234 235 236 237 238 239 240 241 242 243 244 245 246 247 248 249 250 251 252 253 254 255 256 257 258 259 260 261 262 263 264 265 266 267 268 269 270 271 272 273 274 275 276 277 278 279 280 281 282 283 284 285 286 287 288 289 290 291 292 293 294 295 296 297 
