# vtk DataFile Version 2.0
tm graph
ASCII
DATASET UNSTRUCTURED_GRID
POINTS 43242 float
558.50 0.50 1212.79
558.50 2.50 1213.18
560.50 0.50 1212.82
558.50 2.50 1213.18
560.50 0.50 1212.82
560.50 2.50 1213.23
558.50 2.50 1213.18
558.50 4.50 1213.74
560.50 2.50 1213.23
558.50 4.50 1213.74
560.50 2.50 1213.23
560.50 4.50 1213.83
558.50 4.50 1213.74
558.50 6.50 1214.44
560.50 4.50 1213.83
558.50 6.50 1214.44
560.50 4.50 1213.83
560.50 6.50 1214.55
558.50 6.50 1214.44
558.50 8.50 1215.22
560.50 6.50 1214.55
558.50 8.50 1215.22
560.50 6.50 1214.55
560.50 8.50 1215.35
558.50 8.50 1215.22
558.50 10.50 1216.06
560.50 8.50 1215.35
558.50 10.50 1216.06
560.50 8.50 1215.35
560.50 10.50 1216.20
558.50 10.50 1216.06
558.50 12.50 1216.92
560.50 10.50 1216.20
558.50 12.50 1216.92
560.50 10.50 1216.20
560.50 12.50 1217.07
558.50 12.50 1216.92
558.50 14.50 1217.77
560.50 12.50 1217.07
558.50 14.50 1217.77
560.50 12.50 1217.07
560.50 14.50 1217.92
558.50 14.50 1217.77
558.50 16.50 1218.61
560.50 14.50 1217.92
558.50 16.50 1218.61
560.50 14.50 1217.92
560.50 16.50 1218.75
558.50 16.50 1218.61
558.50 18.50 1219.40
560.50 16.50 1218.75
558.50 18.50 1219.40
560.50 16.50 1218.75
560.50 18.50 1219.53
558.50 18.50 1219.40
558.50 20.50 1220.16
560.50 18.50 1219.53
558.50 20.50 1220.16
560.50 18.50 1219.53
560.50 20.50 1220.27
558.50 20.50 1220.16
558.50 22.50 1220.87
560.50 20.50 1220.27
558.50 22.50 1220.87
560.50 20.50 1220.27
560.50 22.50 1220.96
558.50 22.50 1220.87
558.50 24.50 1221.54
560.50 22.50 1220.96
558.50 24.50 1221.54
560.50 22.50 1220.96
560.50 24.50 1221.62
558.50 24.50 1221.54
558.50 26.50 1222.18
560.50 24.50 1221.62
558.50 26.50 1222.18
560.50 24.50 1221.62
560.50 26.50 1222.24
558.50 26.50 1222.18
558.50 28.50 1222.78
560.50 26.50 1222.24
558.50 28.50 1222.78
560.50 26.50 1222.24
560.50 28.50 1222.83
558.50 28.50 1222.78
558.50 30.50 1223.37
560.50 28.50 1222.83
558.50 30.50 1223.37
560.50 28.50 1222.83
560.50 30.50 1223.41
558.50 30.50 1223.37
558.50 32.50 1223.95
560.50 30.50 1223.41
558.50 32.50 1223.95
560.50 30.50 1223.41
560.50 32.50 1223.98
558.50 32.50 1223.95
558.50 34.50 1224.53
560.50 32.50 1223.98
558.50 34.50 1224.53
560.50 32.50 1223.98
560.50 34.50 1224.55
558.50 34.50 1224.53
558.50 36.50 1225.11
560.50 34.50 1224.55
558.50 36.50 1225.11
560.50 34.50 1224.55
560.50 36.50 1225.11
558.50 36.50 1225.11
558.50 38.50 1225.70
560.50 36.50 1225.11
556.50 38.50 1225.66
558.50 36.50 1225.11
558.50 38.50 1225.70
556.50 38.50 1225.66
556.50 40.50 1226.28
558.50 38.50 1225.70
556.50 40.50 1226.28
558.50 38.50 1225.70
558.50 40.50 1226.30
556.50 40.50 1226.28
556.50 42.50 1226.91
558.50 40.50 1226.30
556.50 42.50 1226.91
558.50 40.50 1226.30
558.50 42.50 1226.90
556.50 42.50 1226.91
556.50 44.50 1227.55
558.50 42.50 1226.90
554.50 44.50 1227.51
556.50 42.50 1226.91
556.50 44.50 1227.55
554.50 44.50 1227.51
554.50 46.50 1228.17
556.50 44.50 1227.55
554.50 46.50 1228.17
556.50 44.50 1227.55
556.50 46.50 1228.20
554.50 46.50 1228.17
554.50 48.50 1228.85
556.50 46.50 1228.20
554.50 48.50 1228.85
556.50 46.50 1228.20
556.50 48.50 1228.88
554.50 48.50 1228.85
554.50 50.50 1229.55
556.50 48.50 1228.88
554.50 50.50 1229.55
556.50 48.50 1228.88
556.50 50.50 1229.58
554.50 50.50 1229.55
554.50 52.50 1230.27
556.50 50.50 1229.58
554.50 52.50 1230.27
556.50 50.50 1229.58
556.50 52.50 1230.30
554.50 52.50 1230.27
554.50 54.50 1231.01
556.50 52.50 1230.30
554.50 54.50 1231.01
556.50 52.50 1230.30
556.50 54.50 1231.03
554.50 54.50 1231.01
554.50 56.50 1231.75
556.50 54.50 1231.03
554.50 56.50 1231.75
556.50 54.50 1231.03
556.50 56.50 1231.76
554.50 56.50 1231.75
554.50 58.50 1232.48
556.50 56.50 1231.76
554.50 58.50 1232.48
556.50 56.50 1231.76
556.50 58.50 1232.47
554.50 58.50 1232.48
554.50 60.50 1233.16
556.50 58.50 1232.47
552.50 60.50 1233.04
554.50 58.50 1232.48
554.50 60.50 1233.16
552.50 60.50 1233.04
552.50 62.50 1233.70
554.50 60.50 1233.16
552.50 62.50 1233.70
554.50 60.50 1233.16
554.50 62.50 1233.78
552.50 62.50 1233.70
552.50 64.50 1234.28
554.50 62.50 1233.78
552.50 64.50 1234.28
554.50 62.50 1233.78
554.50 64.50 1234.31
552.50 64.50 1234.28
552.50 66.50 1234.78
554.50 64.50 1234.31
552.50 66.50 1234.78
554.50 64.50 1234.31
554.50 66.50 1234.74
552.50 66.50 1234.78
552.50 68.50 1235.17
554.50 66.50 1234.74
550.50 68.50 1235.15
552.50 66.50 1234.78
552.50 68.50 1235.17
550.50 68.50 1235.15
550.50 70.50 1235.52
552.50 68.50 1235.17
550.50 70.50 1235.52
552.50 68.50 1235.17
552.50 70.50 1235.46
550.50 70.50 1235.52
550.50 72.50 1235.80
552.50 70.50 1235.46
548.50 72.50 1235.83
550.50 70.50 1235.52
550.50 72.50 1235.80
548.50 72.50 1235.83
548.50 74.50 1236.09
550.50 72.50 1235.80
546.50 74.50 1236.09
548.50 72.50 1235.83
548.50 74.50 1236.09
546.50 74.50 1236.09
546.50 76.50 1236.33
548.50 74.50 1236.09
544.50 76.50 1236.30
546.50 74.50 1236.09
546.50 76.50 1236.33
544.50 76.50 1236.30
544.50 78.50 1236.52
546.50 76.50 1236.33
544.50 78.50 1236.52
546.50 76.50 1236.33
546.50 78.50 1236.51
544.50 78.50 1236.52
544.50 80.50 1236.69
546.50 78.50 1236.51
542.50 80.50 1236.65
544.50 78.50 1236.52
544.50 80.50 1236.69
542.50 80.50 1236.65
542.50 82.50 1236.83
544.50 80.50 1236.69
542.50 82.50 1236.83
544.50 80.50 1236.69
544.50 82.50 1236.83
542.50 82.50 1236.83
542.50 84.50 1236.98
544.50 82.50 1236.83
542.50 84.50 1236.98
544.50 82.50 1236.83
544.50 84.50 1236.94
542.50 84.50 1236.98
542.50 86.50 1237.10
544.50 84.50 1236.94
540.50 86.50 1237.08
542.50 84.50 1236.98
542.50 86.50 1237.10
540.50 86.50 1237.08
540.50 88.50 1237.20
542.50 86.50 1237.10
540.50 88.50 1237.20
542.50 86.50 1237.10
542.50 88.50 1237.18
540.50 88.50 1237.20
540.50 90.50 1237.26
542.50 88.50 1237.18
538.50 90.50 1237.23
540.50 88.50 1237.20
540.50 90.50 1237.26
538.50 90.50 1237.23
538.50 92.50 1237.24
540.50 90.50 1237.26
490.50 134.50 1235.35
490.50 136.50 1235.34
492.50 134.50 1235.34
490.50 136.50 1235.34
492.50 134.50 1235.34
492.50 136.50 1235.35
490.50 136.50 1235.34
490.50 138.50 1235.37
492.50 136.50 1235.35
490.50 138.50 1235.37
492.50 136.50 1235.35
492.50 138.50 1235.41
490.50 138.50 1235.37
490.50 140.50 1235.44
492.50 138.50 1235.41
490.50 140.50 1235.44
492.50 138.50 1235.41
492.50 140.50 1235.52
490.50 140.50 1235.44
490.50 142.50 1235.57
492.50 140.50 1235.52
490.50 142.50 1235.57
492.50 140.50 1235.52
492.50 142.50 1235.67
490.50 142.50 1235.57
490.50 144.50 1235.76
492.50 142.50 1235.67
490.50 144.50 1235.76
492.50 142.50 1235.67
492.50 144.50 1235.88
490.50 144.50 1235.76
490.50 146.50 1236.00
492.50 144.50 1235.88
490.50 146.50 1236.00
492.50 144.50 1235.88
492.50 146.50 1236.14
490.50 146.50 1236.00
490.50 148.50 1236.30
492.50 146.50 1236.14
490.50 148.50 1236.30
492.50 146.50 1236.14
492.50 148.50 1236.45
490.50 148.50 1236.30
490.50 150.50 1236.64
492.50 148.50 1236.45
490.50 150.50 1236.64
492.50 148.50 1236.45
492.50 150.50 1236.80
490.50 150.50 1236.64
490.50 152.50 1237.00
492.50 150.50 1236.80
490.50 152.50 1237.00
492.50 150.50 1236.80
492.50 152.50 1237.16
490.50 152.50 1237.00
490.50 154.50 1237.37
492.50 152.50 1237.16
490.50 154.50 1237.37
492.50 152.50 1237.16
492.50 154.50 1237.53
490.50 154.50 1237.37
490.50 156.50 1237.74
492.50 154.50 1237.53
490.50 156.50 1237.74
492.50 154.50 1237.53
492.50 156.50 1237.89
490.50 156.50 1237.74
490.50 158.50 1238.10
492.50 156.50 1237.89
490.50 158.50 1238.10
492.50 156.50 1237.89
492.50 158.50 1238.24
490.50 158.50 1238.10
490.50 160.50 1238.47
492.50 158.50 1238.24
490.50 160.50 1238.47
492.50 158.50 1238.24
492.50 160.50 1238.61
490.50 160.50 1238.47
490.50 162.50 1238.86
492.50 160.50 1238.61
490.50 162.50 1238.86
492.50 160.50 1238.61
492.50 162.50 1239.00
490.50 162.50 1238.86
490.50 164.50 1239.31
492.50 162.50 1239.00
490.50 164.50 1239.31
492.50 162.50 1239.00
492.50 164.50 1239.46
490.50 164.50 1239.31
490.50 166.50 1239.85
492.50 164.50 1239.46
490.50 166.50 1239.85
492.50 164.50 1239.46
492.50 166.50 1240.01
490.50 166.50 1239.85
490.50 168.50 1240.48
492.50 166.50 1240.01
490.50 168.50 1240.48
492.50 166.50 1240.01
492.50 168.50 1240.66
490.50 168.50 1240.48
490.50 170.50 1241.19
492.50 168.50 1240.66
490.50 170.50 1241.19
492.50 168.50 1240.66
492.50 170.50 1241.38
490.50 170.50 1241.19
490.50 172.50 1241.95
492.50 170.50 1241.38
490.50 172.50 1241.95
492.50 170.50 1241.38
492.50 172.50 1242.14
490.50 172.50 1241.95
490.50 174.50 1242.71
492.50 172.50 1242.14
490.50 174.50 1242.71
492.50 172.50 1242.14
492.50 174.50 1242.87
490.50 174.50 1242.71
490.50 176.50 1243.39
492.50 174.50 1242.87
490.50 176.50 1243.39
492.50 174.50 1242.87
492.50 176.50 1243.52
490.50 176.50 1243.39
490.50 178.50 1243.96
492.50 176.50 1243.52
490.50 178.50 1243.96
492.50 176.50 1243.52
492.50 178.50 1244.05
490.50 178.50 1243.96
490.50 180.50 1244.41
492.50 178.50 1244.05
490.50 180.50 1244.41
492.50 178.50 1244.05
492.50 180.50 1244.46
490.50 180.50 1244.41
490.50 182.50 1244.74
492.50 180.50 1244.46
490.50 182.50 1244.74
492.50 180.50 1244.46
492.50 182.50 1244.79
490.50 182.50 1244.74
490.50 184.50 1245.03
492.50 182.50 1244.79
490.50 184.50 1245.03
492.50 182.50 1244.79
492.50 184.50 1245.09
490.50 184.50 1245.03
490.50 186.50 1245.34
492.50 184.50 1245.09
490.50 186.50 1245.34
492.50 184.50 1245.09
492.50 186.50 1245.44
490.50 186.50 1245.34
490.50 188.50 1245.72
492.50 186.50 1245.44
490.50 188.50 1245.72
492.50 186.50 1245.44
492.50 188.50 1245.85
490.50 188.50 1245.72
490.50 190.50 1246.18
492.50 188.50 1245.85
490.50 190.50 1246.18
492.50 188.50 1245.85
492.50 190.50 1246.33
490.50 190.50 1246.18
490.50 192.50 1246.69
492.50 190.50 1246.33
490.50 192.50 1246.69
492.50 190.50 1246.33
492.50 192.50 1246.83
490.50 192.50 1246.69
490.50 194.50 1247.19
492.50 192.50 1246.83
490.50 194.50 1247.19
492.50 192.50 1246.83
492.50 194.50 1247.30
490.50 194.50 1247.19
490.50 196.50 1247.60
492.50 194.50 1247.30
490.50 196.50 1247.60
492.50 194.50 1247.30
492.50 196.50 1247.65
490.50 196.50 1247.60
490.50 198.50 1247.86
492.50 196.50 1247.65
490.50 198.50 1247.86
492.50 196.50 1247.65
[...]
CELL_DATA 14414
FIELD FieldData 1
pid 1 14414 int
0 0 0 0 0 0 0 0 0 0 0 0 0 0 0 0 0 0 0 0 0 0 0 0 0 0 0 0 0 0 0 0 0 0 0 0 0 0 0 0 0 0 0 0 0 0 0 0 0 0 0 0 0 0 0 0 0 0 0 0 0 0 0 0 0 0 0 0 0 0 0 0 0 0 0 0 0 0 0 0 0 0 0 0 0 0 0 0 0 0 0 1 1 1 1 1 1 1 1 1 1 1 1 1 1 1 1 1 1 1 1 1 1 1 1 1 1 1 1 1 1 1 1 1 1 1 1 1 1 1 1 1 1 1 1 1 1 1 1 1 1 1 1 1 1 1 1 1 1 1 1 1 1 1 1 1 1 1 1 1 1 1 1 1 1 1 1 1 1 1 1 1 1 1 1 1 1 1 1 1 1 1 1 1 1 1 1 1 1 1 1 1 1 1 1 1 1 1 1 1 1 1 1 1 1 1 1 1 2 2 2 2 2 2 2 2 2 2 2 2 2 2 2 3 3 3 3 3 3 3 3 3 3 3 3 3 3 3 3 3 3 3 3 3 3 3 3 3 3 4 4 4 4 4 4 4 4 4 4 4 4 4 4 4 4 4 4 4 4 5 5 5 5 5 5 5 5 5 5 5 5 5 5 5 5 5 5 5 5 5 5 5 5 5 5 5 5 5 5 5 5 5 5 5 5 5 5 5 5 5 5 5 5 5 5 5 5 5 5 5 5 5 5 5 5 5 5 5 5 5 5 5 5 5 5 5 5 5 5 5 5 5 5 5 5 5 5 5 5 5 5 5 5 5 5 5 5 5 5 5 5 5 5 5 5 5 5 5 5 5 5 5 5 5 5 5 5 5 5 5 6 6 6 6 6 6 6 6 7 7 7 7 7 7 7 7 7 7 7 7 7 7 7 7 7 7 7 7 7 7 7 7 7 7 7 7 7 7 7 7 7 7 7 7 7 7 7 7 7 7 7 7 7 7 7 7 7 7 7 7 7 7 7 7 7 7 7 7 7 7 7 7 7 7 7 7 7 7 7 7 7 7 7 7 7 7 7 7 7 7 7 7 7 7 7 7 7 7 7 7 7 7 7 7 7 7 7 7 7 7 7 7 7 7 7 7 7 7 7 7 7 7 7 7 7 7 7 7 7 7 7 7 7 7 7 7 7 7 7 7 7 7 7 7 7 7 7 7 7 7 7 7 7 7 7 7 7 7 7 7 7 7 7 7 7 7 7 7 7 7 8 8 9 9 9 9 9 9 9 9 9 9 9 9 9 9 9 9 9 9 9 9 9 9 9 9 9 9 9 9 9 9 9 9 9 9 9 9 9 9 9 9 9 9 9 9 9 9 9 9 9 9 9 9 9 9 9 9 9 9 9 9 9 9 9 9 9 9 9 9 9 9 9 9 9 9 9 9 9 9 9 9 9 9 9 9 9 9 9 9 9 9 9 9 9 9 9 9 9 9 9 9 9 9 9 9 9 9 9 9 9 9 9 9 9 9 9 9 9 9 9 9 9 9 9 9 9 9 9 9 9 9 9 9 9 9 9 9 9 9 9 9 9 9 9 9 9 9 9 9 9 9 9 10 10 10 10 10 10 10 10 10 10 11 11 11 11 11 11 11 11 11 11 11 11 11 12 12 12 12 12 12 12 12 12 12 12 12 12 12 12 12 12 12 12 12 12 12 12 12 12 12 12 12 12 12 12 12 12 12 12 12 12 12 12 12 12 12 12 12 12 12 12 12 12 12 12 12 12 12 12 12 12 12 12 12 12 12 12 12 12 12 12 12 12 12 12 12 12 12 12 12 12 12 12 12 12 12 12 12 12 12 12 12 12 12 12 12 12 12 12 12 12 12 12 12 12 12 12 12 12 12 12 12 12 12 12 12 12 12 12 12 12 12 12 12 12 12 12 12 12 12 12 12 12 12 12 12 13 13 13 13 13 14 14 14 14 14 14 14 14 14 14 14 14 14 14 14 14 14 14 14 14 14 14 14 14 14 14 14 14 14 14 14 14 14 14 14 14 14 14 14 14 14 14 14 14 14 14 14 14 14 14 14 14 14 14 14 15 15 15 15 15 15 15 15 15 15 15 15 15 15 15 15 15 16 16 16 16 16 16 16 16 16 16 16 16 16 16 16 16 16 16 16 16 16 16 16 16 16 16 16 16 16 16 16 16 16 16 16 16 16 16 16 16 16 16 16 16 16 16 16 16 16 16 16 16 16 16 16 16 16 16 16 16 16 16 16 16 16 16 16 16 16 16 16 16 16 16 16 16 16 16 16 16 16 16 16 16 16 16 16 16 17 17 17 17 17 17 17 17 17 17 17 17 17 17 17 17 17 17 18 18 18 18 18 18 18 18 18 18 18 18 18 19 19 19 19 19 19 19 19 19 19 19 19 19 19 19 19 19 19 19 19 19 19 19 19 19 19 19 19 19 19 19 19 19 19 19 19 19 19 19 19 19 19 19 19 19 19 19 19 19 19 19 19 19 19 19 19 19 19 19 19 19 19 19 19 19 19 19 19 19 19 19 19 19 19 19 19 19 19 19 19 19 19 19 19 19 19 19 19 19 19 19 19 19 19 19 19 19 19 19 19 19 19 19 19 19 19 19 19 19 19 19 19 19 19 19 19 19 19 19 19 19 19 19 19 19 19 19 19 19 19 19 19 19 19 19 19 19 19 19 19 19 19 19 19 19 19 19 19 19 19 19 19 19 19 19 19 19 19 19 19 19 19 19 19 19 19 19 19 19 19 19 19 19 19 19 19 19 19 19 19 19 19 19 19 19 19 19 19 19 19 19 19 19 19 19 19 19 19 19 19 19 19 19 19 19 19 19 19 19 19 19 19 19 19 19 19 19 19 19 19 19 19 19 19 19 19 19 19 19 19 19 19 19 19 19 19 19 19 19 19 19 19 19 19 19 19 19 19 19 19 19 19 19 19 19 19 19 19 19 19 19 19 19 19 19 19 19 19 19 19 19 19 19 19 19 19 19 19 19 19 19 19 19 19 19 19 19 19 19 19 19 19 19 19 19 19 19 19 19 19 19 19 19 19 19 19 19 19 19 19 19 19 19 19 19 19 19 19 19 19 19 19 19 19 19 19 19 19 19 19 19 19 19 19 19 19 19 19 19 19 19 19 19 19 19 19 19 19 19 19 19 19 19 19 19 19 19 19 19 19 19 19 19 19 19 19 19 19 19 19 19 19 19 19 19 19 19 19 19 19 19 19 19 19 19 19 19 19 19 19 19 19 19 19 19 19 19 19 19 19 19 19 19 19 19 19 19 19 19 19 19 19 19 19 19 19 19 19 19 19 19 19 19 19 19 19 19 19 19 19 19 19 19 19 19 19 19 19 19 19 19 19 19 19 19 19 19 19 19 19 19 19 19 19 19 20 20 20 20 20 20 20 20 20 20 20 20 20 21 21 21 21 21 21 21 21 21 21 21 21 21 21 21 21 21 21 21 21 21 21 21 21 21 21 21 21 21 21 21 21 21 21 21 21 21 21 21 21 21 21 21 21 21 21 21 21 21 21 21 21 21 21 21 21 21 21 21 21 21 21 21 21 21 21 21 21 21 21 21 21 21 21 21 21 21 21 21 21 21 21 21 21 21 21 21 21 21 21 21 21 21 21 21 21 21 21 21 21 21 21 21 21 21 21 21 21 21 21 21 21 21 21 21 21 21 21 21 21 21 21 21 21 21 21 21 21 21 21 21 21 21 21 21 21 21 21 21 21 21 21 21 21 21 21 21 21 21 21 21 21 21 21 21 21 21 21 21 21 21 21 21 21 21 21 21 21 21 21 21 21 21 21 21 21 21 21 21 21 21 21 21 21 21 21 21 21 21 21 21 21 21 21 21 21 21 21 21 21 21 21 21 21 21 21 21 21 21 21 21 21 21 21 21 21 21 21 21 21 21 21 21 21 21 21 21 21 21 21 21 21 21 21 21 21 21 21 21 21 21 21 21 21 21 21 21 21 21 21 21 21 21 21 21 21 21 21 21 21 21 21 21 21 21 21 21 21 21 21 21 21 21 21 21 21 21 21 21 21 21 21 21 21 21 21 21 21 21 21 21 21 21 21 21 21 21 21 21 21 21 21 21 21 21 21 21 21 21 21 21 21 21 21 21 21 21 21 21 21 21 21 21 21 21 21 21 21 21 21 21 21 21 21 21 21 21 21 21 21 21 21 21 21 21 21 21 21 21 21 21 21 21 21 21 21 21 21 21 21 21 21 21 21 21 21 21 21 21 21 21 21 21 21 21 21 21 21 21 21 21 21 21 21 21 21 21 21 21 21 21 21 21 21 21 21 21 21 21 21 21 21 21 21 21 21 21 21 21 21 21 21 21 21 21 21 21 21 21 21 21 21 21 21 21 21 21 21 21 21 21 21 21 21 21 21 21 21 21 21 21 21 21 21 21 21 21 21 21 21 21 21 21 21 21 21 21 21 22 22 22 22 22 22 22 22 22 22 22 23 23 23 24 24 24 25 25 25 25 25 25 25 25 25 25 25 25 25 25 25 25 25 25 25 26 26 26 26 26 26 26 26 26 26 26 26 26 26 26 26 26 26 26 26 26 26 26 26 26 26 26 26 26 26 26 26 26 26 26 26 26 26 26 26 26 26 26 26 26 26 26 26 26 26 26 26 26 26 26 26 26 26 26 26 26 26 27 27 27 27 27 27 27 27 27 27 27 27 27 27 27 27 27 27 27 27 27 27 27 27 27 27 27 27 27 27 27 27 27 27 27 27 27 27 27 27 27 27 27 27 27 27 27 27 28 28 28 28 28 28 28 28 28 28 28 28 28 28 28 28 28 28 28 28 28 28 28 28 28 28 28 28 28 28 28 28 28 28 28 28 28 28 28 28 28 28 28 28 28 28 28 28 28 28 28 28 28 28 29 29 29 29 29 29 29 29 29 29 29 29 29 29 29 29 29 29 29 29 29 29 29 29 29 29 29 29 29 29 29 29 29 29 29 29 29 29 30 30 30 30 30 30 30 30 30 30 30 30 30 30 30 30 30 30 30 30 30 30 30 30 30 30 30 30 30 30 30 31 31 31 31 31 31 31 31 31 31 31 31 31 31 31 31 31 31 31 31 31 31 31 31 31 31 31 31 31 31 31 31 31 31 31 31 31 31 31 31 31 31 31 31 31 31 31 31 31 31 31 31 31 31 31 31 31 31 31 31 31 31 31 31 31 31 31 31 31 31 31 31 31 31 31 31 31 31 31 31 31 31 31 31 31 31 31 31 31 31 31 31 31 31 31 31 31 31 31 31 31 31 31 31 31 31 31 31 31 31 31 31 31 31 31 31 31 31 31 31 31 31 31 31 31 31 31 31 31 31 31 31 31 31 31 31 31 31 31 31 31 31 31 31 31 31 31 31 31 31 31 31 31 31 31 31 31 31 31 31 31 31 31 31 31 31 31 31 31 31 31 31 31 31 31 31 31 31 31 31 31 31 31 31 31 31 31 31 31 31 31 31 31 31 31 31 31 31 31 31 31 31 31 31 31 31 31 31 31 31 31 31 31 31 31 31 31 31 31 31 31 31 31 31 31 31 31 31 31 31 31 31 31 31 31 31 31 31 31 31 31 31 31 31 31 31 31 31 31 31 31 31 31 31 31 31 31 31 31 31 31 31 31 31 31 31 31 31 31 31 31 31 31 31 31 31 31 31 31 31 31 31 31 31 31 31 31 31 31 31 31 31 31 31 31 31 31 31 31 31 31 31 31 31 31 31 31 31 31 31 31 31 31 31 31 31 31 31 31 31 31 31 31 31 31 31 31 31 31 31 31 31 31 31 31 31 31 31 31 31 31 31 31 31 31 31 31 31 31 31 31 31 31 31 31 31 31 31 31 31 31 31 31 31 31 31 31 31 31 31 31 31 31 31 31 31 31 31 31 31 31 31 31 31 31 31 31 31 31 31 31 31 31 31 31 31 31 31 31 31 31 31 31 31 31 31 31 31 31 31 31 31 31 31 31 31 31 31 31 31 31 31 31 31 31 31 31 31 31 31 31 31 31 31 32 32 32 32 32 32 32 32 32 32 32 32 32 32 32 32 32 32 32 32 32 32 32 32 32 32 32 32 32 32 32 32 32 32 32 32 32 32 32 32 32 32 32 32 32 32 32 32 32 32 32 32 32 32 32 32 32 32 32 32 33 33 33 33 33 33 33 33 33 33 33 33 33 33 33 33 33 33 33 33 33 33 33 33 33 33 33 33 33 33 33 33 33 33 33 33 33 33 33 33 33 33 33 33 33 33 33 33 33 33 33 33 33 33 33 33 33 33 33 33 33 33 33 33 33 33 33 33 33 33 33 33 33 33 33 33 33 33 33 33 33 33 33 33 33 33 33 33 33 33 33 33 33 33 33 33 33 33 33 33 33 33 33 33 33 33 33 33 33 33 33 33 33 33 33 33 33 33 33 33 33 33 33 33 33 33 33 33 33 33 33 33 33 33 33 33 33 33 33 33 33 33 33 33 33 33 33 33 33 33 33 33 33 33 33 33 33 33 33 33 33 33 33 33 33 33 33 33 33 33 33 33 33 33 33 33 33 33 33 33 33 33 33 33 33 33 33 33 33 34 34 34 34 34 34 34 34 34 34 34 34 34 34 34 34 34 34 34 34 34 34 34 34 34 34 34 34 34 34 34 34 34 34 34 34 34 34 34 34 34 34 35 35 35 35 35 35 35 35 35 35 35 35 35 35 35 35 35 35 35 35 35 35 35 35 35 35 35 35 35 35 35 35 35 35 35 35 35 35 35 35 35 35 35 35 35 35 35 35 35 35 35 35 35 35 35 35 35 35 35 35 35 35 35 35 35 35 35 35 35 35 35 35 35 35 35 35 35 35 35 35 35 35 35 35 35 35 35 35 35 35 35 35 35 35 35 35 35 35 35 35 35 35 35 35 35 35 35 35 35 35 35 35 35 35 35 35 35 35 35 35 35 35 35 35 35 35 35 35 35 35 35 35 35 35 35 35 35 35 35 35 35 35 35 35 35 35 35 35 35 35 35 35 35 35 35 35 35 35 35 35 35 35 35 35 35 35 35 35 35 35 35 35 35 35 35 35 35 35 35 35 35 35 35 35 35 35 35 35 35 35 35 35 35 35 35 35 35 35 35 35 35 35 35 35 35 35 35 35 35 35 35 35 35 35 35 35 35 35 35 35 35 35 35 35 35 35 35 35 35 35 35 35 35 35 35 35 35 35 35 35 35 35 35 35 35 35 35 35 35 35 35 35 35 35 35 35 35 35 35 35 35 35 35 35 35 35 35 35 35 35 35 35 35 35 35 35 35 35 35 35 35 35 35 35 35 35 35 35 35 35 35 35 35 35 35 35 35 36 36 36 36 36 36 36 36 36 36 36 36 36 36 36 36 36 36 36 36 36 36 36 36 36 36 36 36 37 37 37 37 37 37 37 37 37 37 37 37 37 37 37 37 37 37 37 37 37 37 37 37 37 37 37 37 37 37 37 37 37 37 37 37 37 37 37 37 37 37 37 37 37 37 37 37 37 37 37 37 37 37 37 37 37 37 37 37 37 37 37 37 37 37 37 37 37 37 37 37 37 37 37 37 37 37 37 37 37 37 37 37 37 37 37 37 37 37 37 37 37 37 37 37 37 37 37 37 37 37 37 37 37 37 37 37 37 37 37 37 37 37 37 37 37 37 37 37 37 37 37 37 37 37 37 37 37 37 37 37 37 37 37 37 37 37 37 37 37 37 37 37 37 37 37 37 37 37 37 37 37 37 37 37 37 37 37 37 37 37 37 37 37 37 37 37 37 37 37 37 37 37 37 37 37 37 37 37 37 37 37 37 37 37 37 37 37 37 37 37 37 37 37 37 37 37 37 37 37 37 37 37 37 37 37 37 37 37 37 37 37 37 37 37 37 37 37 37 37 37 37 37 37 37 37 37 37 37 37 37 37 37 37 37 37 37 37 37 37 37 37 37 37 37 37 37 37 37 37 37 37 37 37 37 37 37 37 37 37 37 37 37 37 37 37 37 37 37 37 37 37 37 37 37 37 37 37 37 37 37 37 37 37 37 37 37 37 37 37 37 37 37 37 37 37 37 37 37 37 37 37 37 37 37 37 37 37 37 37 37 37 37 37 37 37 37 37 37 37 37 37 37 37 37 37 37 37 37 37 37 37 37 37 37 37 37 37 37 37 37 37 37 37 37 37 37 37 37 37 37 37 37 37 37 37 37 37 37 37 37 37 37 37 37 37 37 37 37 37 37 37 37 37 37 37 37 37 37 37 37 37 37 37 37 37 37 37 37 37 37 37 37 37 37 37 37 37 37 37 37 37 37 37 37 37 38 38 38 38 38 38 38 39 39 39 39 39 39 39 39 39 39 39 39 39 39 40 40 40 40 40 40 40 40 40 40 40 40 40 40 40 40 40 40 40 40 40 40 40 40 40 40 40 40 40 40 40 40 40 40 40 40 40 40 40 40 40 40 40 40 40 40 40 40 40 40 40 40 40 40 40 40 40 40 40 40 40 40 40 40 40 40 40 40 40 40 40 40 40 40 40 40 40 40 40 40 40 40 40 40 40 40 40 40 40 40 40 40 40 40 40 40 40 40 40 40 40 40 40 40 40 40 40 40 40 40 40 40 40 40 40 40 40 40 40 40 40 40 40 40 40 40 40 40 40 40 40 40 40 40 40 40 40 40 40 40 40 40 40 40 40 40 40 40 40 40 40 40 40 40 40 40 40 40 40 40 40 40 40 40 40 40 40 40 40 40 40 40 40 40 40 40 40 40 40 40 40 40 40 40 40 40 40 40 40 40 41 41 41 41 41 41 41 41 41 41 41 41 41 41 41 41 41 41 41 41 41 41 41 41 41 41 41 41 41 41 41 41 41 41 41 41 41 41 41 41 41 41 41 41 41 41 41 41 41 41 41 41 41 41 41 41 41 41 41 41 41 41 41 41 41 41 41 41 41 41 41 41 41 41 41 41 41 41 41 41 41 41 41 41 41 41 41 41 41 41 41 41 41 41 41 41 41 41 41 41 41 41 41 41 41 41 41 41 41 41 41 41 41 41 41 41 41 41 41 41 41 41 41 41 41 41 41 41 41 41 41 41 41 41 41 41 41 41 41 41 41 41 41 41 41 41 41 41 41 41 41 41 41 41 41 41 41 41 41 41 41 41 41 41 41 41 41 41 41 41 41 41 41 41 41 41 41 41 41 41 41 41 41 41 41 41 41 41 41 41 41 41 41 41 41 41 41 41 41 41 41 41 41 41 41 41 41 41 41 41 41 41 41 41 41 41 41 41 41 41 41 41 41 41 41 41 41 41 41 41 41 41 41 41 41 41 41 41 41 41 41 41 41 41 41 41 41 41 41 41 41 41 41 41 41 41 41 41 41 41 41 41 41 41 41 41 41 41 41 41 41 41 41 41 41 41 41 41 41 41 41 41 41 41 41 41 41 41 41 41 41 41 41 41 41 41 41 41 41 41 41 41 41 41 41 41 41 41 41 41 41 41 41 41 41 41 41 41 41 41 41 41 41 41 41 41 41 41 41 41 41 41 41 41 41 41 41 41 41 41 41 41 41 41 41 41 41 41 41 41 41 41 41 41 41 41 41 41 41 41 41 41 41 41 41 41 42 42 42 42 42 42 42 42 42 42 42 42 42 42 42 42 42 42 42 42 42 42 42 42 42 42 42 42 42 42 42 42 42 42 42 42 42 42 42 42 42 42 42 42 42 42 42 42 42 42 42 42 42 42 42 42 42 42 42 42 42 42 42 42 42 42 42 42 42 42 42 42 42 42 42 42 42 42 42 42 42 42 42 42 42 42 42 42 42 42 42 42 42 42 42 42 42 42 42 42 42 42 42 42 42 42 42 42 42 42 42 42 42 42 42 42 42 42 42 42 42 42 42 42 42 42 42 42 42 42 42 42 42 42 42 42 42 42 42 42 42 42 42 42 42 42 42 42 42 42 42 42 42 42 42 42 42 42 42 42 42 42 42 42 42 42 42 42 42 42 42 42 42 42 42 43 43 43 43 43 43 43 43 43 43 43 43 43 43 43 43 43 43 43 43 43 43 43 43 43 43 43 43 43 43 43 43 43 43 43 43 43 43 43 43 43 43 43 43 43 43 43 43 43 43 43 43 43 43 43 43 43 43 43 43 43 43 43 43 43 43 43 43 43 43 43 43 43 43 43 43 43 43 43 43 43 43 43 43 43 43 43 43 43 43 43 43 43 43 43 43 43 43 43 43 43 43 43 43 43 43 43 43 43 43 43 43 43 43 43 43 43 43 43 43 43 43 43 43 43 43 43 43 43 43 43 43 43 43 43 43 43 43 43 43 43 43 43 43 43 43 43 43 43 43 43 43 43 43 43 43 43 43 43 43 43 43 43 43 43 43 43 43 43 43 43 43 43 43 43 43 43 43 43 43 43 43 43 43 43 43 43 43 43 43 43 43 43 43 43 43 43 43 43 43 43 43 43 43 43 43 43 43 43 43 43 43 43 43 43 43 43 43 43 43 43 43 43 43 43 43 43 43 43 43 43 43 43 43 43 43 43 43 43 43 43 43 43 43 43 43 43 43 43 43 43 43 43 43 43 43 43 43 43 43 43 43 43 43 43 43 43 43 43 43 43 43 43 43 43 43 43 43 43 43 43 43 43 43 43 43 43 43 43 43 43 43 43 43 43 43 43 43 43 43 43 43 43 43 43 43 43 43 43 43 43 43 43 43 43 43 43 43 43 43 43 43 43 43 43 43 43 43 43 43 43 43 43 43 43 43 43 43 43 43 43 43 43 43 43 43 43 43 43 43 43 43 43 43 43 43 43 43 43 43 43 43 43 43 43 43 43 43 43 43 43 43 43 43 43 43 43 43 43 43 43 43 43 43 43 43 43 43 44 44 44 44 44 44 44 44 45 45 45 45 45 45 45 45 45 45 45 45 45 45 45 45 45 45 45 45 45 45 45 45 45 45 45 45 45 45 45 45 45 45 45 45 45 46 46 46 46 46 46 46 46 46 46 47 47 47 47 47 47 47 47 47 47 47 47 47 47 47 47 47 47 47 47 47 47 47 47 47 47 47 47 47 47 47 47 47 47 47 47 47 47 47 47 47 47 47 47 47 47 47 48 48 48 48 48 48 48 48 48 48 48 48 48 48 48 48 48 48 48 48 48 48 48 48 48 48 48 48 48 48 48 48 48 48 48 48 48 48 48 48 48 48 48 48 48 48 48 48 48 48 48 48 48 48 48 48 48 48 48 48 48 48 48 48 48 48 48 48 48 48 48 48 48 48 48 48 48 48 48 48 48 48 48 48 48 48 48 48 48 48 48 48 48 48 48 48 48 48 48 48 48 48 48 48 48 48 48 48 48 48 48 48 48 48 48 48 48 48 48 48 48 48 48 48 48 48 48 48 48 48 48 48 48 48 49 49 49 49 49 49 49 49 49 49 49 49 49 49 49 49 49 49 49 49 49 50 50 50 50 50 50 50 50 50 50 50 50 50 50 50 50 50 50 50 50 50 50 50 50 50 50 50 50 50 50 50 50 50 50 50 50 50 50 50 50 50 50 50 50 50 50 50 50 50 50 50 50 50 50 50 50 50 50 50 50 50 50 50 50 50 50 50 50 50 50 50 50 50 50 50 50 50 50 50 50 50 50 50 50 50 50 50 50 50 50 50 50 50 50 50 50 50 50 50 50 50 50 50 50 50 50 50 50 50 50 50 50 50 50 50 50 50 50 50 50 50 50 50 50 50 50 50 50 50 50 50 50 50 50 50 50 50 51 51 51 51 51 51 51 51 51 51 51 51 51 51 51 51 51 51 51 51 51 51 51 51 51 51 52 52 52 52 52 52 52 52 52 52 52 52 52 52 52 52 52 52 52 52 52 52 52 52 52 52 52 52 52 52 52 52 52 52 53 53 53 53 53 53 53 53 53 53 53 53 53 53 53 53 53 53 53 53 53 53 53 53 53 53 53 53 53 53 53 53 53 53 53 53 53 54 54 54 54 54 54 54 54 54 54 54 54 54 54 54 54 54 54 54 54 54 54 54 54 54 54 54 54 54 54 54 54 54 54 54 54 54 54 54 54 54 54 55 55 55 55 55 55 55 55 55 55 55 55 56 56 56 56 56 56 56 56 56 56 56 56 56 56 56 56 56 57 57 57 57 57 57 57 57 57 57 57 57 57 57 57 57 57 57 57 57 57 57 57 57 57 57 57 57 57 57 57 57 57 57 57 57 57 57 57 57 57 57 57 57 57 57 57 57 57 57 57 57 57 57 57 57 57 57 57 57 57 58 58 58 58 58 58 58 58 58 58 58 58 58 58 58 58 58 58 58 58 58 59 59 59 59 59 59 59 59 59 59 59 59 59 59 59 59 59 59 59 59 59 59 59 59 59 59 59 59 59 59 59 59 59 59 59 59 59 59 59 59 59 59 59 59 59 59 59 59 59 59 59 59 59 59 59 59 59 59 59 59 59 59 59 60 60 60 60 60 60 60 60 60 60 60 60 60 60 60 60 60 60 60 60 60 60 60 60 60 60 60 60 60 60 60 60 60 60 60 60 60 60 60 60 60 60 60 60 60 60 60 60 60 60 60 60 60 60 60 60 60 60 60 60 60 60 60 60 60 60 60 60 60 60 60 60 60 60 60 60 60 60 60 60 60 60 60 60 60 60 60 60 60 60 60 60 60 60 60 60 60 60 60 60 60 60 60 60 60 60 60 60 60 60 60 60 60 60 60 60 60 60 60 60 60 60 60 60 60 60 60 60 60 60 60 60 60 60 60 60 60 60 60 61 61 62 62 62 63 63 63 64 64 64 64 64 64 64 64 64 64 64 64 64 64 64 64 64 64 64 64 64 64 64 64 64 64 64 64 64 64 64 64 64 65 65 65 65 65 65 65 65 65 65 65 65 65 65 65 65 65 65 65 65 65 65 65 65 65 65 65 65 65 65 65 65 65 65 65 65 65 65 65 65 65 65 65 65 65 65 65 65 65 65 65 65 65 65 66 66 66 66 66 66 66 66 66 66 66 66 66 66 66 66 66 66 66 66 66 66 66 66 66 66 66 66 66 66 66 66 66 66 66 66 66 66 66 66 66 66 66 66 66 66 66 66 66 66 66 66 66 66 66 66 66 66 66 66 66 66 66 66 66 66 66 66 66 66 66 66 66 66 66 66 66 66 66 66 66 66 66 66 66 66 66 66 66 66 66 66 66 66 66 66 66 66 66 66 66 66 66 66 66 66 66 66 66 66 66 66 66 66 66 66 67 67 67 67 67 67 67 67 67 67 67 67 67 67 67 67 67 67 67 68 68 68 68 68 68 68 68 68 68 68 68 68 68 68 68 68 68 68 68 68 68 68 68 68 69 69 69 69 69 69 69 69 69 69 69 69 69 69 69 69 69 69 69 69 69 69 69 69 69 69 69 69 69 69 69 69 69 69 69 69 69 69 69 69 69 69 69 69 69 69 69 69 69 69 69 69 69 69 69 69 69 69 69 69 69 69 69 69 69 69 69 69 69 69 69 69 69 69 69 69 69 69 69 69 69 69 69 69 69 69 69 69 69 69 69 70 70 70 70 70 70 70 70 70 70 70 70 70 70 70 70 70 70 70 70 70 70 70 70 70 70 70 70 70 70 70 70 70 70 70 70 70 70 70 70 70 70 70 70 70 70 70 70 70 70 70 70 70 70 70 70 70 70 70 70 70 70 70 70 70 70 70 70 70 70 70 70 70 70 70 70 70 70 70 70 70 70 70 70 70 70 70 70 70 70 70 70 70 70 70 70 70 70 70 70 71 71 71 71 71 71 71 71 71 71 71 71 71 71 71 71 71 71 71 71 71 72 72 72 72 72 72 72 72 72 72 72 72 72 72 72 72 72 72 72 72 72 72 72 72 72 72 72 72 72 72 72 72 72 72 72 72 72 72 72 72 72 72 72 72 72 72 72 72 72 72 72 72 72 72 72 72 72 72 72 72 72 72 72 72 72 72 72 72 72 72 72 72 72 72 72 72 72 72 72 72 72 72 72 72 72 72 72 72 72 72 72 72 72 72 72 72 72 72 72 72 72 72 72 72 72 72 72 72 72 72 72 72 72 72 72 72 72 72 72 72 72 72 72 72 72 72 72 72 72 73 73 73 73 73 73 73 73 73 73 73 73 73 73 73 73 73 73 73 73 73 73 73 73 73 73 73 73 73 73 73 73 73 73 73 73 73 73 73 73 73 73 73 73 73 73 73 73 73 73 73 73 73 73 73 73 73 73 73 73 73 73 73 73 73 73 73 73 73 73 73 73 73 73 73 73 73 73 73 73 73 73 73 73 73 73 73 73 73 73 73 73 73 73 73 73 73 73 73 73 73 73 73 73 73 73 73 73 73 73 73 73 73 73 73 73 73 73 73 73 73 73 73 73 73 73 73 73 73 73 73 73 74 74 74 74 74 74 74 74 74 74 74 74 74 74 74 74 74 74 74 74 74 74 74 74 74 74 74 74 74 74 74 74 74 74 74 74 74 74 74 74 74 74 74 74 74 74 74 74 74 74 74 74 74 74 74 74 74 74 74 74 74 74 74 74 74 74 74 74 74 74 74 74 74 74 74 74 74 74 74 74 74 74 74 74 74 74 74 74 74 74 74 74 74 74 74 74 74 74 74 74 74 74 74 74 74 74 74 74 74 74 74 74 74 74 74 74 74 74 74 74 74 74 74 74 74 74 74 74 74 74 74 75 75 75 75 75 75 75 75 75 75 75 75 75 75 75 75 75 75 75 75 75 75 75 75 75 75 75 75 75 75 75 75 75 75 75 75 75 75 75 75 75 75 75 75 75 75 75 75 75 75 75 75 75 75 75 75 75 75 75 75 76 76 76 76 76 76 76 76 76 76 77 77 77 77 77 77 77 77 77 77 77 77 77 77 77 77 77 77 77 77 77 77 77 77 77 77 77 77 77 77 77 77 77 77 77 77 77 77 77 77 77 77 77 77 77 77 77 77 77 77 77 77 77 77 77 77 77 77 77 77 77 77 77 77 77 77 78 78 78 78 78 78 78 78 78 78 78 78 78 78 78 78 78 78 78 78 78 78 78 78 78 78 78 78 78 78 78 78 78 78 78 78 78 78 78 78 78 78 78 78 78 78 78 78 78 78 78 78 78 78 78 78 78 78 78 78 78 78 78 78 78 78 78 78 78 78 78 78 78 78 78 78 78 78 78 78 78 78 78 78 78 78 78 78 78 78 78 78 78 78 78 78 78 78 78 78 78 78 78 78 78 78 78 78 78 78 78 78 78 78 78 78 78 78 78 78 78 78 78 78 78 78 79 79 79 79 79 79 79 79 79 79 79 79 79 79 79 80 80 80 80 80 80 80 80 80 80 80 80 80 80 80 80 80 81 81 81 81 81 81 81 81 81 81 81 81 81 81 81 81 81 81 81 81 81 81 81 81 81 81 81 81 81 81 81 81 81 81 81 81 81 81 81 8