# vtk DataFile Version 2.0
tm graph
ASCII
DATASET UNSTRUCTURED_GRID
POINTS 49146 float
558.50 0.50 1212.79
560.50 0.50 1212.82
560.50 2.50 1213.23
560.50 0.50 1212.82
560.50 2.50 1213.23
562.50 2.50 1213.16
560.50 2.50 1213.23
562.50 2.50 1213.16
562.50 4.50 1213.78
560.50 2.50 1213.23
560.50 4.50 1213.83
562.50 4.50 1213.78
560.50 4.50 1213.83
562.50 4.50 1213.78
562.50 6.50 1214.53
560.50 4.50 1213.83
560.50 6.50 1214.55
562.50 6.50 1214.53
560.50 6.50 1214.55
562.50 6.50 1214.53
562.50 8.50 1215.36
560.50 6.50 1214.55
560.50 8.50 1215.35
562.50 8.50 1215.36
560.50 8.50 1215.35
562.50 8.50 1215.36
562.50 10.50 1216.23
562.50 8.50 1215.36
562.50 10.50 1216.23
564.50 10.50 1216.11
562.50 10.50 1216.23
564.50 10.50 1216.11
564.50 12.50 1217.00
562.50 10.50 1216.23
562.50 12.50 1217.10
564.50 12.50 1217.00
562.50 12.50 1217.10
564.50 12.50 1217.00
564.50 14.50 1217.86
562.50 12.50 1217.10
562.50 14.50 1217.96
564.50 14.50 1217.86
562.50 14.50 1217.96
564.50 14.50 1217.86
564.50 16.50 1218.68
562.50 14.50 1217.96
562.50 16.50 1218.77
564.50 16.50 1218.68
562.50 16.50 1218.77
564.50 16.50 1218.68
564.50 18.50 1219.45
562.50 16.50 1218.77
562.50 18.50 1219.55
564.50 18.50 1219.45
562.50 18.50 1219.55
564.50 18.50 1219.45
564.50 20.50 1220.17
562.50 18.50 1219.55
562.50 20.50 1220.28
564.50 20.50 1220.17
562.50 20.50 1220.28
564.50 20.50 1220.17
564.50 22.50 1220.85
562.50 20.50 1220.28
562.50 22.50 1220.96
564.50 22.50 1220.85
562.50 22.50 1220.96
564.50 22.50 1220.85
564.50 24.50 1221.49
562.50 22.50 1220.96
562.50 24.50 1221.60
564.50 24.50 1221.49
562.50 24.50 1221.60
564.50 24.50 1221.49
564.50 26.50 1222.09
562.50 24.50 1221.60
562.50 26.50 1222.21
564.50 26.50 1222.09
562.50 26.50 1222.21
564.50 26.50 1222.09
564.50 28.50 1222.68
562.50 26.50 1222.21
562.50 28.50 1222.80
564.50 28.50 1222.68
562.50 28.50 1222.80
564.50 28.50 1222.68
564.50 30.50 1223.25
562.50 28.50 1222.80
562.50 30.50 1223.37
564.50 30.50 1223.25
562.50 30.50 1223.37
564.50 30.50 1223.25
564.50 32.50 1223.82
562.50 30.50 1223.37
562.50 32.50 1223.93
564.50 32.50 1223.82
562.50 32.50 1223.93
564.50 32.50 1223.82
564.50 34.50 1224.38
562.50 32.50 1223.93
562.50 34.50 1224.49
564.50 34.50 1224.38
562.50 34.50 1224.49
564.50 34.50 1224.38
564.50 36.50 1224.95
562.50 34.50 1224.49
562.50 36.50 1225.05
564.50 36.50 1224.95
562.50 36.50 1225.05
564.50 36.50 1224.95
564.50 38.50 1225.51
562.50 36.50 1225.05
562.50 38.50 1225.62
564.50 38.50 1225.51
562.50 38.50 1225.62
564.50 38.50 1225.51
564.50 40.50 1226.08
562.50 38.50 1225.62
562.50 40.50 1226.19
564.50 40.50 1226.08
562.50 40.50 1226.19
564.50 40.50 1226.08
564.50 42.50 1226.64
562.50 40.50 1226.19
562.50 42.50 1226.76
564.50 42.50 1226.64
562.50 42.50 1226.76
564.50 42.50 1226.64
564.50 44.50 1227.20
562.50 42.50 1226.76
562.50 44.50 1227.34
564.50 44.50 1227.20
562.50 44.50 1227.34
564.50 44.50 1227.20
564.50 46.50 1227.76
562.50 44.50 1227.34
562.50 46.50 1227.93
564.50 46.50 1227.76
562.50 46.50 1227.93
564.50 46.50 1227.76
564.50 48.50 1228.32
562.50 46.50 1227.93
562.50 48.50 1228.53
564.50 48.50 1228.32
562.50 48.50 1228.53
564.50 48.50 1228.32
564.50 50.50 1228.89
562.50 48.50 1228.53
562.50 50.50 1229.14
564.50 50.50 1228.89
562.50 50.50 1229.14
564.50 50.50 1228.89
564.50 52.50 1229.45
562.50 50.50 1229.14
562.50 52.50 1229.76
564.50 52.50 1229.45
562.50 52.50 1229.76
564.50 52.50 1229.45
564.50 54.50 1230.00
562.50 52.50 1229.76
562.50 54.50 1230.38
564.50 54.50 1230.00
562.50 54.50 1230.38
564.50 54.50 1230.00
564.50 56.50 1230.54
562.50 54.50 1230.38
562.50 56.50 1230.98
564.50 56.50 1230.54
562.50 56.50 1230.98
564.50 56.50 1230.54
564.50 58.50 1231.04
562.50 56.50 1230.98
562.50 58.50 1231.55
564.50 58.50 1231.04
562.50 58.50 1231.55
564.50 58.50 1231.04
564.50 60.50 1231.50
562.50 58.50 1231.55
562.50 60.50 1232.06
564.50 60.50 1231.50
560.50 58.50 1231.98
562.50 58.50 1231.55
562.50 60.50 1232.06
560.50 58.50 1231.98
560.50 60.50 1232.55
562.50 60.50 1232.06
560.50 60.50 1232.55
562.50 60.50 1232.06
562.50 62.50 1232.51
560.50 60.50 1232.55
560.50 62.50 1233.04
562.50 62.50 1232.51
558.50 60.50 1232.91
560.50 60.50 1232.55
560.50 62.50 1233.04
558.50 60.50 1232.91
558.50 62.50 1233.45
560.50 62.50 1233.04
558.50 62.50 1233.45
560.50 62.50 1233.04
560.50 64.50 1233.45
558.50 62.50 1233.45
558.50 64.50 1233.89
560.50 64.50 1233.45
556.50 62.50 1233.70
558.50 62.50 1233.45
558.50 64.50 1233.89
556.50 62.50 1233.70
556.50 64.50 1234.19
558.50 64.50 1233.89
556.50 64.50 1234.19
558.50 64.50 1233.89
558.50 66.50 1234.23
556.50 64.50 1234.19
556.50 66.50 1234.56
558.50 66.50 1234.23
556.50 66.50 1234.56
558.50 66.50 1234.23
558.50 68.50 1234.47
556.50 66.50 1234.56
556.50 68.50 1234.84
558.50 68.50 1234.47
554.50 66.50 1234.74
556.50 66.50 1234.56
556.50 68.50 1234.84
554.50 66.50 1234.74
554.50 68.50 1235.07
556.50 68.50 1234.84
554.50 68.50 1235.07
556.50 68.50 1234.84
556.50 70.50 1235.02
554.50 68.50 1235.07
554.50 70.50 1235.30
556.50 70.50 1235.02
552.50 68.50 1235.17
554.50 68.50 1235.07
554.50 70.50 1235.30
552.50 68.50 1235.17
552.50 70.50 1235.46
554.50 70.50 1235.30
552.50 70.50 1235.46
554.50 70.50 1235.30
554.50 72.50 1235.45
552.50 70.50 1235.46
552.50 72.50 1235.67
554.50 72.50 1235.45
550.50 70.50 1235.52
552.50 70.50 1235.46
552.50 72.50 1235.67
550.50 70.50 1235.52
550.50 72.50 1235.80
552.50 72.50 1235.67
550.50 72.50 1235.80
552.50 72.50 1235.67
552.50 74.50 1235.81
550.50 72.50 1235.80
550.50 74.50 1235.99
552.50 74.50 1235.81
550.50 74.50 1235.99
552.50 74.50 1235.81
552.50 76.50 1235.90
550.50 74.50 1235.99
550.50 76.50 1236.13
552.50 76.50 1235.90
548.50 74.50 1236.09
550.50 74.50 1235.99
550.50 76.50 1236.13
548.50 74.50 1236.09
548.50 76.50 1236.27
550.50 76.50 1236.13
548.50 76.50 1236.27
550.50 76.50 1236.13
550.50 78.50 1236.22
548.50 76.50 1236.27
548.50 78.50 1236.41
550.50 78.50 1236.22
546.50 76.50 1236.33
548.50 76.50 1236.27
548.50 78.50 1236.41
546.50 76.50 1236.33
546.50 78.50 1236.51
548.50 78.50 1236.41
546.50 78.50 1236.51
548.50 78.50 1236.41
548.50 80.50 1236.50
546.50 78.50 1236.51
546.50 80.50 1236.64
548.50 80.50 1236.50
544.50 78.50 1236.52
546.50 78.50 1236.51
546.50 80.50 1236.64
544.50 78.50 1236.52
544.50 80.50 1236.69
546.50 80.50 1236.64
544.50 80.50 1236.69
546.50 80.50 1236.64
546.50 82.50 1236.74
544.50 80.50 1236.69
544.50 82.50 1236.83
546.50 82.50 1236.74
544.50 82.50 1236.83
546.50 82.50 1236.74
546.50 84.50 1236.82
544.50 82.50 1236.83
544.50 84.50 1236.94
546.50 84.50 1236.82
542.50 82.50 1236.83
544.50 82.50 1236.83
544.50 84.50 1236.94
542.50 82.50 1236.83
542.50 84.50 1236.98
544.50 84.50 1236.94
542.50 84.50 1236.98
544.50 84.50 1236.94
544.50 86.50 1237.03
542.50 84.50 1236.98
542.50 86.50 1237.10
544.50 86.50 1237.03
542.50 86.50 1237.10
544.50 86.50 1237.03
544.50 88.50 1237.08
542.50 86.50 1237.10
542.50 88.50 1237.18
544.50 88.50 1237.08
540.50 86.50 1237.08
542.50 86.50 1237.10
542.50 88.50 1237.18
540.50 86.50 1237.08
540.50 88.50 1237.20
542.50 88.50 1237.18
540.50 88.50 1237.20
542.50 88.50 1237.18
542.50 90.50 1237.21
540.50 88.50 1237.20
540.50 90.50 1237.26
542.50 90.50 1237.21
540.50 90.50 1237.26
542.50 90.50 1237.21
542.50 92.50 1237.17
490.50 132.50 1235.40
490.50 134.50 1235.35
492.50 134.50 1235.34
490.50 134.50 1235.35
492.50 134.50 1235.34
492.50 136.50 1235.35
492.50 134.50 1235.34
492.50 136.50 1235.35
494.50 136.50 1235.37
492.50 136.50 1235.35
494.50 136.50 1235.37
494.50 138.50 1235.46
494.50 136.50 1235.37
494.50 138.50 1235.46
496.50 138.50 1235.51
494.50 138.50 1235.46
496.50 138.50 1235.51
496.50 140.50 1235.66
496.50 138.50 1235.51
496.50 140.50 1235.66
498.50 140.50 1235.72
496.50 140.50 1235.66
498.50 140.50 1235.72
498.50 142.50 1235.93
498.50 140.50 1235.72
498.50 142.50 1235.93
500.50 142.50 1235.99
498.50 142.50 1235.93
500.50 142.50 1235.99
500.50 144.50 1236.24
500.50 142.50 1235.99
500.50 144.50 1236.24
502.50 144.50 1236.29
500.50 144.50 1236.24
502.50 144.50 1236.29
502.50 146.50 1236.58
502.50 144.50 1236.29
502.50 146.50 1236.58
504.50 146.50 1236.61
502.50 146.50 1236.58
504.50 146.50 1236.61
504.50 148.50 1236.93
504.50 146.50 1236.61
504.50 148.50 1236.93
506.50 148.50 1236.96
504.50 148.50 1236.93
506.50 148.50 1236.96
506.50 150.50 1237.31
506.50 148.50 1236.96
506.50 150.50 1237.31
508.50 150.50 1237.35
506.50 150.50 1237.31
508.50 150.50 1237.35
508.50 152.50 1237.72
508.50 150.50 1237.35
508.50 152.50 1237.72
510.50 152.50 1237.75
508.50 152.50 1237.72
510.50 152.50 1237.75
510.50 154.50 1238.15
510.50 152.50 1237.75
510.50 154.50 1238.15
512.50 154.50 1238.18
510.50 154.50 1238.15
512.50 154.50 1238.18
512.50 156.50 1238.59
512.50 154.50 1238.18
512.50 156.50 1238.59
514.50 156.50 1238.61
512.50 156.50 1238.59
514.50 156.50 1238.61
514.50 158.50 1239.05
514.50 156.50 1238.61
514.50 158.50 1239.05
516.50 158.50 1239.06
514.50 158.50 1239.05
516.50 158.50 1239.06
516.50 160.50 1239.54
516.50 158.50 1239.06
516.50 160.50 1239.54
518.50 160.50 1239.55
516.50 160.50 1239.54
518.50 160.50 1239.55
518.50 162.50 1240.08
518.50 160.50 1239.55
518.50 162.50 1240.08
520.50 162.50 1240.09
518.50 162.50 1240.08
520.50 162.50 1240.09
520.50 164.50 1240.66
520.50 162.50 1240.09
520.50 164.50 1240.66
522.50 164.50 1240.66
520.50 164.50 1240.66
522.50 164.50 1240.66
522.50 166.50 1241.24
522.50 164.50 1240.66
522.50 166.50 1241.24
524.50 166.50 1241.22
522.50 166.50 1241.24
524.50 166.50 1241.22
524.50 168.50 1241.79
522.50 166.50 1241.24
522.50 168.50 1241.82
524.50 168.50 1241.79
522.50 168.50 1241.82
524.50 168.50 1241.79
524.50 170.50 1242.35
522.50 168.50 1241.82
522.50 170.50 1242.39
524.50 170.50 1242.35
522.50 170.50 1242.39
524.50 170.50 1242.35
524.50 172.50 1242.89
522.50 170.50 1242.39
522.50 172.50 1242.95
524.50 172.50 1242.89
522.50 172.50 1242.95
524.50 172.50 1242.89
524.50 174.50 1243.42
522.50 172.50 1242.95
522.50 174.50 1243.48
524.50 174.50 1243.42
522.50 174.50 1243.48
524.50 174.50 1243.42
524.50 176.50 1243.91
522.50 174.50 1243.48
522.50 176.50 1243.97
[...]
CELL_DATA 16382
FIELD FieldData 1
pid 1 16382 int
0 0 0 0 0 0 0 0 0 0 0 0 0 0 0 0 0 0 0 0 0 0 0 0 0 0 0 0 0 0 0 0 0 0 0 0 0 0 0 0 0 0 0 0 0 0 0 0 0 0 0 0 0 0 0 0 0 0 0 0 0 0 0 0 0 0 0 0 0 0 0 0 0 0 0 0 0 0 0 0 0 0 0 0 0 0 0 0 0 0 0 0 0 0 0 0 0 0 0 0 0 0 0 0 0 0 0 0 0 0 0 0 0 1 1 1 1 1 1 1 1 1 1 1 1 1 1 1 1 1 1 1 1 1 1 1 1 1 1 1 1 1 1 1 1 1 1 1 1 1 1 1 1 1 1 1 1 1 1 1 1 1 1 1 1 1 1 1 1 1 1 1 1 1 1 1 1 1 1 1 1 1 1 1 1 1 1 1 1 1 1 1 1 1 1 1 1 1 1 1 1 1 1 1 1 1 1 1 1 1 1 1 1 1 1 1 2 2 2 2 2 2 2 2 2 2 2 2 2 2 2 2 2 2 2 2 2 2 2 3 3 3 3 3 3 3 3 3 3 3 3 3 3 3 3 3 3 3 3 3 3 3 3 3 3 3 3 3 3 3 3 3 3 3 3 3 3 3 3 3 3 3 3 4 4 4 4 4 4 4 4 4 4 4 4 4 4 4 4 4 4 4 4 4 4 4 4 4 4 5 6 7 7 7 7 7 7 7 7 7 7 7 7 7 7 7 7 7 7 7 7 7 7 7 7 7 7 7 7 7 7 7 7 7 7 7 7 7 7 7 7 7 7 7 7 7 7 7 7 7 7 7 7 7 7 7 7 7 7 7 7 7 7 7 7 7 7 7 7 7 7 7 7 7 7 7 7 7 7 7 7 7 7 7 7 7 7 7 7 7 7 7 7 7 7 7 7 7 7 7 7 7 7 7 7 7 7 7 7 7 7 7 7 7 7 7 7 7 7 7 7 7 7 8 8 8 8 8 8 8 8 8 8 8 8 8 8 8 8 8 8 8 8 8 8 8 8 8 8 8 8 8 8 8 8 8 8 8 8 8 8 8 8 8 8 8 8 8 8 8 8 8 8 8 8 8 8 8 8 8 8 8 8 8 8 8 8 8 8 8 8 8 8 8 8 8 8 8 8 8 8 8 8 8 8 8 8 8 8 8 8 8 8 8 8 8 8 8 8 8 8 8 8 8 8 8 8 8 8 8 8 8 8 8 8 8 8 8 8 8 8 8 8 9 9 9 9 9 9 9 9 9 9 9 9 9 9 9 9 9 9 9 9 9 9 9 9 9 9 9 9 9 9 9 9 9 9 9 9 9 9 9 9 9 9 9 9 9 9 9 9 9 9 9 9 9 9 9 9 9 9 9 9 9 9 9 9 9 9 9 9 9 9 9 9 9 9 9 9 9 9 9 9 9 9 9 9 9 9 9 9 9 9 9 9 9 9 9 9 9 9 9 9 9 9 9 9 9 9 9 9 9 9 9 9 9 9 9 9 9 9 9 9 9 9 9 9 9 9 10 10 10 10 10 10 10 10 10 11 11 11 11 11 11 11 11 11 11 11 11 11 11 11 11 11 11 11 11 11 11 11 11 11 11 11 11 11 11 11 11 11 11 11 11 11 11 11 11 11 11 11 11 11 11 11 11 11 11 11 11 11 11 11 11 11 11 11 11 11 11 11 11 11 11 11 11 11 11 11 11 11 11 11 11 11 11 11 11 11 11 11 11 11 11 11 11 11 11 11 11 11 11 11 11 11 11 11 11 11 11 11 11 11 11 11 11 11 12 12 12 12 12 12 12 12 12 12 12 12 12 12 12 12 12 12 12 12 12 12 12 12 12 12 12 12 12 12 12 12 12 12 12 12 12 12 12 12 12 12 12 12 12 12 12 12 12 12 12 12 12 12 12 12 12 12 12 12 12 12 12 12 12 12 12 12 12 12 12 12 12 12 12 12 12 12 12 12 12 12 12 12 12 12 12 12 12 12 12 12 12 12 12 12 12 12 12 12 12 12 12 12 12 12 12 12 12 12 12 12 12 12 13 13 13 13 13 13 13 13 13 13 13 13 13 13 14 14 14 14 14 14 14 14 14 14 14 14 14 15 15 15 15 15 15 15 15 15 15 15 15 15 15 15 15 15 15 15 15 15 15 15 15 15 15 15 15 15 15 15 15 15 15 15 15 15 15 15 15 15 15 15 15 15 15 15 15 15 15 15 15 15 15 15 15 15 15 15 15 15 15 15 15 15 15 15 15 15 15 15 15 15 15 15 15 15 15 15 15 15 15 15 15 15 15 15 15 15 15 15 15 15 15 15 15 15 15 15 15 15 15 15 15 15 15 15 15 15 15 15 15 15 15 15 15 15 15 15 15 15 15 15 15 15 15 15 15 15 15 15 15 15 15 15 15 15 15 15 15 15 15 15 15 15 15 15 15 15 15 15 15 15 15 15 15 15 15 15 15 15 15 15 15 15 15 15 15 15 15 15 15 15 15 15 15 15 15 15 15 15 16 17 17 18 18 18 19 19 19 19 19 19 19 19 19 19 19 19 19 19 19 19 19 19 19 19 19 19 19 19 19 19 19 19 19 19 19 19 19 19 19 19 19 19 19 19 19 19 19 19 19 19 19 19 19 19 19 19 19 19 19 19 19 19 19 19 19 19 19 19 19 19 19 19 19 19 19 20 20 20 20 21 21 21 21 21 21 21 21 21 21 21 21 21 21 21 21 21 21 21 21 21 21 21 21 21 21 21 21 21 21 21 21 21 21 21 21 21 21 21 21 21 21 21 21 21 21 21 21 21 21 21 21 21 21 21 21 21 21 21 21 21 21 21 21 21 21 21 21 21 21 21 22 22 22 23 24 24 25 25 25 25 25 25 25 25 25 25 25 25 25 25 25 25 25 25 25 25 25 25 25 25 25 25 25 25 25 25 25 25 25 25 25 25 25 25 25 25 25 25 25 25 25 25 25 25 25 25 25 25 25 25 25 25 25 25 25 25 25 25 25 25 25 25 25 25 25 25 25 25 25 25 25 25 25 25 25 25 25 25 25 25 25 25 25 25 25 25 25 25 25 25 25 25 25 25 25 25 25 25 25 25 25 25 25 25 25 25 25 25 25 25 25 25 25 25 25 25 25 25 25 25 25 25 25 25 25 25 25 25 25 25 25 25 25 25 25 25 26 26 26 26 26 26 26 26 26 26 26 26 26 26 27 27 28 28 28 28 28 28 28 28 28 28 28 28 28 28 28 28 28 28 28 28 28 28 28 28 28 28 28 28 28 28 28 28 28 28 28 28 28 28 28 28 28 28 28 28 28 28 28 28 28 28 28 28 28 28 28 28 28 28 28 28 28 28 28 28 28 28 28 28 28 28 28 28 28 28 28 28 28 28 28 28 28 28 28 28 28 28 28 28 28 28 28 28 28 28 28 28 28 28 28 28 28 28 28 28 28 28 28 28 28 28 28 28 28 28 28 28 28 28 28 28 28 28 28 28 28 28 28 28 28 28 28 28 28 28 28 28 28 28 28 28 28 28 28 28 28 28 28 28 28 28 28 28 28 28 28 28 28 28 28 28 28 28 28 28 28 28 28 28 28 28 28 28 28 28 28 28 28 28 28 28 28 28 28 28 28 28 28 28 28 28 28 28 28 28 28 28 28 28 28 28 28 28 28 28 28 28 28 28 28 28 28 28 28 28 28 28 28 28 28 28 28 28 28 28 28 28 28 28 28 28 28 28 28 28 28 28 28 28 28 28 28 28 28 28 28 28 28 28 28 28 28 28 28 28 28 28 28 28 28 28 28 28 28 28 28 28 28 28 28 28 28 28 28 28 28 28 28 28 28 28 28 28 28 29 29 29 29 29 29 29 29 29 29 29 29 29 29 30 30 30 30 30 30 30 30 30 30 30 30 30 30 30 30 30 30 30 30 30 30 30 30 30 30 30 30 30 30 30 30 30 30 30 30 30 30 30 30 30 30 30 30 30 30 30 30 30 30 30 30 30 30 30 30 30 30 30 30 30 30 30 30 30 30 30 30 30 30 30 30 30 30 30 30 30 30 30 30 30 30 30 30 30 30 30 30 30 30 30 30 30 30 30 30 30 30 30 30 30 30 30 30 30 30 30 30 30 30 30 30 30 30 30 30 30 30 30 30 30 30 30 30 30 30 30 30 30 30 30 30 30 30 30 30 30 30 30 30 30 30 30 30 30 30 30 30 30 30 30 30 30 30 30 30 30 30 30 30 30 30 30 30 30 30 30 30 30 30 30 30 30 30 30 30 30 30 30 30 30 30 30 30 30 30 30 30 30 30 30 30 30 30 30 30 30 30 30 30 30 30 30 30 30 30 30 30 30 30 30 30 30 30 30 30 30 30 30 30 30 30 30 30 30 30 30 30 30 30 30 30 30 30 30 30 30 30 30 30 30 30 30 30 30 30 30 30 30 30 30 30 30 30 30 30 30 30 30 30 30 30 30 30 30 30 30 30 30 30 30 30 30 30 30 30 30 30 30 31 31 31 31 31 31 31 31 32 32 32 32 32 32 32 32 32 32 32 32 32 32 32 32 32 32 32 32 32 32 32 32 32 32 32 32 32 32 32 32 32 32 32 32 32 32 32 32 32 32 32 32 32 32 32 32 32 32 32 32 32 32 32 32 32 33 33 33 33 33 33 33 33 33 33 33 33 33 33 33 33 33 33 33 33 33 33 33 33 33 34 34 34 34 34 34 34 34 34 34 34 34 34 34 34 34 34 34 34 34 34 34 34 34 34 34 34 35 35 35 35 35 35 35 35 35 35 35 35 35 35 35 35 35 35 35 35 35 35 35 35 36 36 36 36 36 36 36 36 36 36 36 36 36 36 36 36 36 36 36 36 36 36 36 36 36 36 36 36 36 36 36 36 36 36 36 36 36 36 36 36 36 36 36 36 36 36 36 36 36 36 36 36 36 36 36 36 36 36 36 36 36 36 36 36 36 36 36 36 36 36 36 36 36 36 36 36 36 36 36 36 36 36 36 36 36 36 36 36 36 36 36 36 36 36 36 36 36 36 36 36 36 36 36 36 36 36 36 36 36 36 36 36 36 36 36 36 36 36 36 36 36 36 36 36 36 36 36 36 36 36 36 36 36 36 36 36 36 36 36 36 36 36 36 36 36 36 36 36 36 36 36 36 36 36 36 36 36 36 36 36 36 36 36 36 36 36 36 36 36 36 36 36 36 36 36 36 36 36 36 36 36 36 36 36 36 36 36 36 36 36 36 36 36 36 36 36 36 36 36 36 36 36 36 36 36 36 36 36 36 36 36 36 36 36 36 36 36 36 36 36 36 36 36 36 36 36 36 36 36 36 36 36 36 36 36 36 36 36 36 36 36 36 36 36 36 36 36 36 36 36 36 36 36 36 36 36 36 36 36 36 36 36 36 36 36 36 36 37 37 37 37 37 37 37 37 37 37 37 37 37 37 37 37 37 37 37 37 37 37 37 38 38 38 38 38 38 38 38 38 38 38 38 38 38 38 38 38 38 38 38 38 38 38 38 38 38 38 38 38 38 38 38 38 38 38 38 38 38 38 38 38 38 38 38 38 38 38 38 38 38 38 38 38 38 38 38 38 38 38 38 38 38 38 38 38 38 38 38 38 38 38 38 38 38 38 38 38 38 38 38 38 38 38 38 38 38 38 38 38 38 38 38 38 38 38 38 38 38 38 38 38 38 38 38 38 38 38 38 38 38 38 38 38 38 38 38 38 38 38 38 38 38 38 38 38 38 38 38 38 38 38 38 38 38 38 38 38 38 38 38 38 38 38 38 38 38 38 38 38 38 38 38 38 38 38 38 38 38 38 38 38 38 38 38 38 38 38 38 38 38 38 38 38 38 38 38 38 38 38 38 38 38 38 38 38 38 38 38 38 38 38 38 38 38 38 38 38 38 38 38 38 38 38 38 38 38 38 38 38 38 38 38 38 38 38 38 38 38 38 38 38 38 38 38 38 38 38 38 38 38 38 38 38 38 38 38 38 38 38 38 38 38 38 38 38 38 38 38 38 38 38 38 38 38 38 38 38 38 38 38 38 38 38 38 38 38 38 38 38 38 38 39 39 39 39 39 39 39 39 39 39 39 39 39 39 39 39 39 40 40 40 40 40 40 40 40 40 40 40 40 40 40 40 40 40 40 40 40 40 40 40 40 40 40 40 40 40 40 40 40 40 40 40 40 40 40 40 40 40 40 40 40 40 40 40 40 40 40 40 40 40 40 40 40 40 40 40 40 40 40 40 40 40 40 40 40 40 40 40 40 40 40 40 40 40 40 40 40 40 40 40 40 40 40 40 40 40 40 40 40 40 40 40 40 40 40 40 40 40 40 40 40 40 40 40 40 40 40 40 40 40 40 40 40 40 40 40 40 40 40 40 40 40 40 40 40 40 40 40 40 40 40 40 40 40 40 40 40 40 40 40 40 40 40 40 40 40 40 40 40 40 40 40 40 40 40 40 40 40 40 40 40 40 40 40 40 40 40 40 40 40 40 40 40 40 40 40 40 40 40 40 40 40 40 40 40 40 40 40 40 40 40 40 40 40 40 40 40 40 40 40 40 40 40 40 40 40 40 40 40 40 40 40 40 40 40 40 40 40 40 40 40 40 40 40 40 40 40 40 40 40 40 40 40 40 40 40 40 40 40 40 40 40 40 40 40 40 40 40 40 40 40 40 40 40 40 40 40 40 40 40 40 40 40 40 40 40 40 40 40 40 40 41 41 41 41 41 41 41 41 41 41 41 41 42 42 42 42 42 42 42 42 42 42 42 42 42 42 42 42 42 42 42 42 42 42 42 42 42 42 42 42 42 42 42 42 42 42 42 42 42 42 42 42 42 42 42 42 42 42 42 42 42 42 42 42 42 42 42 42 42 42 42 42 42 42 42 42 42 42 42 42 42 42 42 42 42 42 42 42 42 42 42 42 42 42 42 42 42 42 42 42 42 42 42 42 42 42 42 42 42 42 42 42 42 42 42 42 42 42 42 42 42 42 42 42 42 42 42 42 42 42 42 42 42 42 42 42 42 42 42 42 42 42 42 42 42 42 42 42 42 42 42 42 42 42 42 42 42 42 42 42 42 42 42 42 42 42 42 42 42 42 42 42 42 42 42 42 42 42 42 42 42 42 42 42 42 42 42 42 42 42 42 42 42 42 42 42 42 42 42 42 42 42 42 42 42 42 42 42 42 42 42 42 42 42 42 42 42 42 42 42 42 42 42 42 42 42 42 42 42 42 42 42 42 42 42 42 42 42 43 43 43 43 43 43 43 44 44 44 45 45 45 46 46 47 47 47 48 48 49 49 49 49 50 50 51 51 51 51 51 51 51 51 51 51 51 51 51 51 51 51 51 51 51 51 52 53 53 54 55 55 55 55 55 55 55 55 55 55 55 55 55 55 55 55 55 55 55 55 55 55 55 55 55 55 55 55 55 55 55 55 55 55 55 55 55 55 55 55 55 55 55 55 55 55 55 55 55 55 55 55 55 55 55 55 55 55 55 55 55 55 55 55 55 55 55 55 55 55 55 55 55 55 55 55 55 55 55 55 55 55 55 55 55 55 55 55 55 55 55 55 55 55 55 55 55 55 55 55 55 55 55 56 56 56 56 56 56 56 56 56 56 56 56 56 56 56 56 56 56 56 56 56 56 56 56 56 56 56 56 56 56 56 56 56 56 56 56 56 56 56 56 56 56 56 56 56 56 56 56 56 56 56 56 56 56 56 56 56 56 56 56 56 56 56 56 56 56 56 56 56 56 56 56 56 56 57 57 57 57 57 57 57 57 57 57 57 57 57 57 57 57 57 57 57 57 57 57 57 57 57 57 57 57 57 57 57 57 57 57 57 57 57 57 57 57 57 57 57 57 57 57 57 57 57 57 57 57 57 57 57 57 57 57 57 57 57 57 57 57 57 57 57 57 57 57 57 57 57 57 57 57 57 57 57 57 57 57 57 57 57 57 57 57 57 57 57 57 57 57 57 57 57 57 57 57 57 57 58 58 58 58 58 58 58 58 58 58 58 58 58 58 58 58 58 58 58 58 58 58 58 58 58 58 58 58 58 58 58 58 58 58 58 58 58 58 58 58 58 58 58 58 58 58 58 58 58 58 58 58 58 58 58 58 58 58 58 58 58 58 58 58 58 58 58 58 58 58 58 58 58 58 58 59 59 59 59 59 59 59 59 59 59 59 59 59 59 59 59 59 59 59 59 59 59 59 59 59 59 59 59 60 60 60 60 60 60 60 60 60 60 60 60 60 60 60 60 60 60 60 60 60 60 60 60 60 60 60 60 60 60 60 60 60 60 60 60 60 60 60 60 60 60 60 60 60 60 60 60 60 60 60 60 60 60 60 60 60 60 60 60 60 60 60 60 60 60 60 60 60 60 60 60 60 60 60 60 60 60 60 60 60 60 60 60 60 60 60 60 60 60 60 60 60 60 60 60 60 60 60 60 60 60 60 60 60 60 60 60 60 60 60 60 60 60 60 60 60 60 60 60 60 60 60 60 60 60 60 60 60 60 60 60 60 60 60 60 60 60 60 60 60 60 60 60 60 60 60 60 60 60 60 60 60 60 60 60 60 60 60 60 60 60 60 60 60 60 60 60 60 60 60 60 60 60 60 60 60 60 60 60 60 60 60 60 60 60 60 60 60 60 60 60 60 60 60 60 60 60 60 60 60 60 60 60 60 60 60 60 60 60 60 60 60 60 60 60 60 60 60 60 60 60 60 60 60 60 60 60 60 60 60 60 60 60 60 60 60 60 60 60 60 60 60 60 60 60 60 60 60 60 60 60 60 60 60 60 60 60 60 60 60 60 60 60 60 60 60 60 60 60 60 60 60 60 60 60 60 60 60 60 60 60 60 60 60 60 60 60 60 60 60 60 60 60 60 60 60 60 60 60 60 60 60 60 60 60 60 60 60 60 60 60 60 60 60 60 60 60 60 60 60 60 60 60 60 60 60 60 60 60 60 60 60 60 60 60 60 60 60 60 60 60 60 60 60 60 60 60 60 60 60 60 60 60 61 61 61 61 61 61 61 61 61 61 61 61 61 61 61 61 61 61 61 61 61 61 61 61 61 61 61 61 61 61 61 61 61 61 61 61 61 61 61 61 61 61 61 61 61 61 61 61 61 61 61 61 61 61 61 61 61 61 61 61 61 61 61 61 61 61 61 61 61 61 61 61 61 61 61 61 61 61 61 61 61 61 61 61 61 61 61 61 61 61 61 61 61 61 61 61 61 61 61 61 61 61 61 61 61 61 61 61 61 61 61 61 61 61 61 61 61 61 61 61 61 62 62 62 62 62 62 62 62 62 62 62 62 62 62 62 62 62 62 62 62 62 62 62 62 62 62 62 63 63 63 63 63 63 63 63 63 63 63 63 63 63 63 63 63 63 63 63 63 63 63 63 63 63 63 63 63 63 63 63 63 63 63 63 63 63 63 63 63 63 63 63 63 63 63 63 63 63 63 63 63 63 63 63 63 63 63 63 63 63 63 63 63 63 63 63 63 63 63 63 63 63 63 63 63 63 63 63 63 63 63 63 63 63 63 63 63 63 63 63 63 63 63 63 63 63 63 63 63 63 63 63 63 63 63 63 63 63 63 63 63 63 63 63 63 63 63 63 63 63 63 63 63 63 63 63 63 63 63 63 63 63 63 63 63 63 63 63 63 63 63 63 63 63 63 63 63 63 63 63 63 63 63 63 63 63 63 63 63 63 63 63 63 63 63 63 63 63 63 63 63 63 63 63 63 63 63 63 63 63 63 63 63 63 63 63 63 63 63 63 63 63 63 63 63 63 63 63 63 63 63 63 63 63 63 63 63 63 63 63 63 63 63 63 63 63 63 63 63 63 63 63 63 63 63 63 63 63 63 63 63 63 63 63 63 63 63 63 63 63 63 63 63 63 63 63 63 63 63 63 63 63 63 63 64 64 64 64 64 64 64 64 64 64 64 64 64 64 64 64 65 65 65 65 65 65 65 65 65 65 65 65 65 65 65 65 65 65 65 65 65 65 65 65 65 65 65 65 65 65 65 65 65 65 65 65 65 65 65 65 65 65 65 65 65 65 65 65 65 65 65 65 65 65 65 65 65 65 65 65 65 65 65 65 65 65 65 65 65 65 65 65 65 65 65 65 65 65 65 65 65 65 65 65 65 65 65 65 65 65 65 65 65 65 65 65 65 65 65 65 65 65 65 65 65 65 65 65 65 65 65 65 65 65 65 65 65 65 65 65 65 65 65 65 65 65 65 65 65 65 65 65 65 65 65 65 65 65 65 65 65 65 65 65 65 65 65 65 65 65 65 65 65 65 65 65 65 65 65 65 65 65 65 65 65 65 65 65 65 65 65 65 65 65 65 65 65 65 65 65 65 65 65 65 65 65 65 65 65 65 65 65 65 65 65 65 65 65 65 65 65 65 65 65 65 65 65 65 65 65 65 65 65 65 65 65 65 65 65 65 65 65 65 65 65 65 65 65 65 65 65 65 65 65 65 65 65 65 65 65 65 65 65 65 65 65 65 65 65 65 65 65 65 65 65 65 65 65 65 65 65 65 65 65 65 65 65 65 65 65 65 65 65 65 65 65 65 65 65 65 65 65 65 65 65 65 65 65 65 65 65 65 65 65 65 66 66 66 66 66 66 67 67 67 67 67 67 67 67 67 67 67 67 67 67 67 67 67 67 67 67 67 67 67 67 67 67 67 67 67 67 67 67 67 67 67 67 67 67 67 67 67 67 67 67 67 67 67 67 67 67 67 67 67 67 67 67 67 67 67 67 67 67 67 67 67 67 67 67 67 67 67 67 67 67 67 67 67 67 67 67 67 67 67 67 67 67 67 67 67 67 67 67 67 67 67 67 67 67 67 67 67 67 67 67 67 67 67 67 67 67 67 67 67 67 67 67 67 67 67 67 67 67 67 67 67 67 67 67 67 67 67 67 67 67 67 67 67 67 67 67 67 67 67 67 67 67 67 67 67 67 67 67 67 67 67 67 67 67 67 67 67 67 67 67 67 67 67 67 67 67 67 67 67 67 67 67 67 67 67 67 67 67 67 67 67 67 67 67 67 67 67 67 67 67 67 67 67 67 67 67 67 67 67 67 67 67 67 67 67 67 67 67 67 67 67 67 67 67 67 67 67 67 67 67 67 67 67 67 67 67 67 67 67 67 67 67 67 67 67 67 67 67 67 67 67 67 67 67 67 67 67 67 67 67 67 67 67 67 67 67 67 67 67 67 67 67 67 67 67 67 67 67 67 67 67 67 67 67 67 67 67 67 67 67 67 67 67 67 67 67 67 67 67 67 67 68 68 68 68 68 68 69 69 69 70 71 71 71 71 71 71 71 71 71 71 71 71 71 71 71 71 71 71 71 71 71 71 71 71 71 71 71 71 71 71 71 71 71 71 71 71 71 71 71 71 71 71 71 71 71 71 71 71 71 71 71 71 71 71 71 71 71 71 71 71 71 71 71 71 71 71 71 71 71 71 71 71 71 71 71 71 71 71 71 71 71 71 71 71 71 71 71 71 71 71 71 71 71 71 71 71 71 71 71 71 71 71 71 71 71 71 71 71 71 71 71 71 71 71 71 71 71 71 71 71 71 71 71 71 71 71 71 71 71 71 71 71 71 71 71 71 71 71 71 71 71 71 71 71 71 71 71 71 71 71 71 71 71 71 71 71 71 71 71 71 71 71 71 71 71 71 71 71 71 71 71 71 71 71 71 71 71 71 71 72 72 72 72 72 72 72 72 72 72 72 72 72 72 73 73 73 73 73 73 73 73 73 73 73 73 73 73 73 73 73 73 73 73 73 73 73 73 73 73 73 73 73 73 73 73 73 73 73 73 73 73 73 73 73 73 73 73 73 73 73 73 73 73 73 73 73 73 73 73 73 73 73 73 73 73 73 73 73 73 73 73 73 73 73 73 73 73 73 73 73 73 73 73 73 73 73 73 73 73 73 73 73 73 73 73 73 73 73 73 73 73 73 73 73 73 73 73 73 73 73 73 73 73 73 73 73 73 73 73 73 73 73 73 73 73 73 73 73 73 73 73 73 73 73 73 73 73 73 73 73 73 73 73 73 73 73 73 73 73 73 73 73 73 73 73 73 73 73 73 73 73 73 73 73 73 73 73 73 73 73 73 73 73 73 73 73 73 73 73 73 73 73 73 73 73 73 73 73 73 73 73 73 73 73 73 73 73 73 73 73 73 73 73 73 73 73 73 73 73 73 73 73 73 73 73 73 73 73 73 73 73 73 73 73 73 73 73 73 73 73 73 73 73 73 73 73 73 73 73 73 73 73 74 74 74 74 74 74 74 74 74 74 74 74 74 74 74 74 74 74 74 74 74 74 74 74 74 74 74 74 74 74 74 74 74 74 74 74 74 74 74 74 74 74 74 74 74 74 74 74 74 74 74 74 74 74 74 74 74 74 74 74 74 74 74 74 74 74 74 74 74 74 74 74 74 74 74 74 74 74 74 74 74 74 74 74 74 74 74 74 74 74 74 74 74 74 74 74 74 74 74 74 74 74 74 74 74 74 74 74 74 74 74 74 74 74 74 74 74 74 74 74 74 74 74 74 74 74 74 74 74 74 74 74 74 74 74 74 74 74 74 74 74 74 74 74 74 74 74 74 74 74 74 74 74 74 74 74 74 74 74 74 74 74 74 74 74 74 74 74 74 74 74 74 74 74 74 74 74 74 74 74 75 75 75 75 75 75 75 75 75 75 75 75 75 75 75 75 75 75 75 75 75 75 75 75 75 75 75 75 75 75 75 75 75 75 75 75 75 75 75 75 75 75 75 75 75 75 75 75 75 75 75 75 75 75 75 75 75 75 75 75 75 75 75 75 75 75 75 75 75 75 75 75 75 75 75 75 75 75 75 75 75 75 75 75 75 75 75 75 75 75 75 75 75 75 75 75 75 75 75 75 75 75 75 75 75 75 75 75 75 75 75 75 75 75 75 75 75 75 75 75 75 75 75 75 75 75 75 75 75 75 75 75 75 75 75 75 75 75 75 75 75 75 75 75 75 75 75 75 75 75 75 75 75 75 75 75 75 75 75 75 75 75 75 75 75 75 75 75 75 75 75 75 75 75 75 75 75 75 75 75 75 75 75 75 75 75 75 75 75 75 75 75 75 75 75 75 75 75 75 75 75 75 75 75 75 75 75 75 75 75 75 75 75 75 75 75 75 75 75 75 75 75 75 75 75 75 75 75 75 75 75 75 75 75 75 75 75 75 75 75 75 75 75 75 75 75 75 76 76 76 76 76 76 76 76 76 76 76 77 77 78 78 78 78 78 78 78 78 78 78 78 78 78 78 78 78 78 78 78 78 78 78 78 78 78 78 78 78 79 79 79 79 79 79 79 79 79 79 79 79 79 79 79 79 79 79 79 79 79 79 79 79 79 79 79 79 79 79 79 79 79 79 79 79 79 79 79 79 79 79 79 79 79 79 80 80 80 80 80 80 80 81 81 81 81 81 81 81 81 81 81 81 81 81 81 81 81 81 81 81 81 81 81 81 81 81 81 81 81 81 81 81 81 81 81 81 81 81 81 81 81 81 81 81 81 81 81 81 81 81 81 81 81 81 81 81 81 81 81 81 81 81 81 81 81 81 81 81 81 81 81 81 81 81 81 81 81 81 81 81 81 81 81 81 81 81 81 81 81 81 81 81 81 81 81 81 81 81 81 81 81 81 81 81 81 81 81 81 81 81 81 81 81 81 81 81 81 81 81 81 81 81 81 81 81 81 81 81 81 81 81 81 81 81 81 81 81 82 82 82 82 82 82 82 82 82 82 82 82 82 82 82 82 82 82 82 82 82 82 82 82 82 82 82 82 82 82 82 82 82 82 82 82 82 82 82 82 82 82 82 82 83 83 83 83 83 83 83 83 83 83 83 83 83 83 83 83 83 83 83 83 83 83 83 83 83 83 83 83 83 83 83 83 83 83 83 83 83 83 83 83 83 83 83 83 83 83 83 83 83 83 83 83 83 83 83 83 83 83 83 83 83 83 83 83 83 83 83 83 83 83 83 83 83 83 83 83 83 83 83 83 83 83 83 83 83 83 83 83 83 83 83 83 83 83 84 84 84 84 84 84 84 84 84 84 84 84 84 84 84 84 84 84 84 84 84 84 84 84 84 84 84 84 84 84 84 84 84 84 84 84 84 84 84 84 84 84 84 84 84 84 84 84 84 84 84 84 84 84 84 84 84 84 84 84 84 84 84 84 84 84 84 84 84 84 84 84 84 84 84 84 84 84 84 84 84 84 84 84 84 84 84 84 84 84 84 84 84 84 84 84 84 84 84 84 84 84 85 85 85 85 85 85 85 85 85 85 85 85 85 85 85 85 85 85 85 85 85 85 85 85 85 85 85 85 85 85 85 85 85 85 85 85 85 85 85 85 85 85 85 86 86 86 86 86 86 86 86 86 86 86 86 86 86 86 86 86 86 86 86 86 86 86 86 86 86 86 86 86 86 86 86 86 86 86 86 86 86 86 86 86 87 87 87 87 87 87 87 87 87 87 87 87 87 87 87 87 87 87 87 87 87 87 87 87 87 87 87 87 87 87 87 87 87 87 87 87 87 87 88 88 88 88 88 88 88 88 88 89 89 89 89 89 89 89 89 89 89 89 89 89 89 89 89 89 89 89 89 90 90 90 90 90 90 90 90 90 90 90 90 90 90 90 90 90 90 90 90 90 90 90 90 90 90 90 90 90 90 90 90 90 90 90 90 90 90 91 91 91 91 91 91 91 91 91 91 91 91 91 91 91 91 91 91 91 91 91 91 91 91 91 91 91 91 91 91 91 92 92 92 92 92 92 92 92 92 92 92 92 92 92 92 92 92 92 92 92 92 92 92 92 92 92 92 92 92 92 92 92 92 92 92 92 92 92 92 92 92 92 92 92 92 92 92 92 92 92 92 92 92 92 92 92 92 92 92 92 92 92 92 92 92 92 92 92 92 92 92 92 92 92 92 92 92 92 92 92 92 92 92 92 92 92 92 92 92 92 92 92 92 92 92 92 92 92 92 92 92 92 92 92 92 92 92 92 93 93 93 93 93 93 93 93 93 93 93 93 93 93 93 93 93 93 93 93 93 93 93 93 93 93 93 93 93 93 93 93 93 93 93 93 93 93 93 93 93 93 93 93 93 93 93 93 93 93 93 93 93 93 93 93 93 93 93 93 93 93 93 93 93 93 93 93 93 93 93 93 93 93 93 93 93 93 93 93 93 93 93 93 93 93 93 93 93 93 93 93 93 93 93 93 93 93 93 93 93 93 93 93 93 93 93 93 93 93 93 93 93 93 93 93 93 93 93 93 93 93 93 93 93 93 93 93 93 93 93 93 93 93 93 93 93 93 93 93 93 93 93 93 93 93 93 93 93 93 93 93 93 93 93 93 93 93 93 93 93 93 93 93 93 93 93 9